/*--------------------------------*- C++ -*----------------------------------*\
| =========                 |                                                 |
| \\      /  F ield         | OpenFOAM: The Open Source CFD Toolbox           |
|  \\    /   O peration     | Version:  3.0.1                                 |
|   \\  /    A nd           | Web:      www.OpenFOAM.org                      |
|    \\/     M anipulation  |                                                 |
\*---------------------------------------------------------------------------*/
FoamFile
{
    version     2.0;
    format      ascii;
    class       volScalarField;
    location    "0.1";
    object      k;
}
// * * * * * * * * * * * * * * * * * * * * * * * * * * * * * * * * * * * * * //

dimensions      [0 2 -2 0 0 0 0];

internalField   nonuniform List<scalar> 
244500
(
10.8163
11.564
8.97401
6.5168
5.20527
4.43076
3.89798
3.50565
3.19355
2.9653
2.76522
2.62935
2.497
2.40768
2.3125
2.26549
2.17681
2.1333
3.38378
7.48601
8.0805
7.74373
6.97014
6.19174
5.53763
5.00212
4.56638
4.23241
3.94164
3.72958
3.53598
3.37616
3.25195
3.14949
3.04662
3.00891
0.370585
2.33292
4.04224
5.00894
5.18747
5.07989
4.80906
4.47803
4.17373
3.91247
3.68287
3.48647
3.33291
3.16347
3.0662
2.93755
2.86123
2.80702
0.0285101
0.378837
1.12146
1.9264
2.51163
2.8541
3.05497
3.09881
3.07595
3.00346
2.92157
2.79822
2.73131
2.60854
2.5546
2.44635
2.38993
2.35002
0.00179548
0.0475741
0.18075
0.443559
0.787374
1.07308
1.34209
1.54708
1.70545
1.77528
1.84349
1.84218
1.85256
1.8377
1.82639
1.78778
1.75431
1.74562
0.000129091
0.00489729
0.02232
0.0648759
0.15779
0.261499
0.394175
0.526504
0.675738
0.758673
0.867593
0.912737
0.966983
1.01361
1.04546
1.0563
1.06128
1.0808
3.40551e-05
0.00050266
0.00242631
0.00747713
0.0206822
0.043357
0.0753286
0.117379
0.185993
0.22632
0.29069
0.32778
0.358558
0.409028
0.442555
0.471837
0.487706
0.517859
10.9555
11.6489
9.01137
6.53057
5.20439
4.41234
3.87515
3.49279
3.19605
2.98418
2.78842
2.65004
2.51089
2.41655
2.30944
2.25652
2.15266
2.10875
3.48661
7.56943
8.11836
7.76383
6.96677
6.16868
5.50394
4.97843
4.56355
4.2565
3.97492
3.76378
3.56498
3.40424
3.2667
3.15981
3.03977
3.00258
0.380572
2.37522
4.05718
5.00163
5.17078
5.06165
4.7843
4.45158
4.1573
3.91983
3.70686
3.51983
3.36325
3.19656
3.09187
2.96308
2.87418
2.81985
0.0300089
0.395199
1.15208
1.92943
2.50619
2.86222
3.05944
3.08958
3.06014
2.98656
2.92354
2.82271
2.75737
2.63573
2.58066
2.47665
2.41745
2.37742
0.00185011
0.0494904
0.189233
0.449572
0.786047
1.08963
1.36265
1.55126
1.68344
1.73738
1.81367
1.83956
1.86391
1.85173
1.84347
1.80986
1.78075
1.77723
0.0001318
0.00524402
0.0234996
0.0643691
0.154934
0.268918
0.411436
0.541968
0.661624
0.723127
0.814278
0.888432
0.963408
1.01218
1.05163
1.06431
1.07691
1.10254
4.35657e-05
0.000557744
0.00254792
0.00738548
0.0201123
0.0425855
0.0794822
0.128903
0.181648
0.212007
0.254134
0.304826
0.354191
0.407424
0.446387
0.472571
0.488411
0.524061
10.9904
11.6489
9.01059
6.52338
5.19622
4.42765
3.88839
3.50379
3.18909
2.97257
2.77946
2.64114
2.51259
2.42381
2.32914
2.28531
2.22312
2.16844
3.49243
7.61438
8.15412
7.7842
6.95311
6.18754
5.53321
5.00659
4.56044
4.23595
3.95652
3.73992
3.55894
3.4008
3.27145
3.17213
3.05965
3.0383
0.385859
2.40431
4.1066
5.03228
5.16731
5.06219
4.80703
4.48995
4.17525
3.91143
3.69238
3.49378
3.35044
3.18969
3.08553
2.96745
2.86302
2.81971
0.0303394
0.397536
1.16394
1.94357
2.49475
2.83419
3.06308
3.11587
3.09102
3.00489
2.92408
2.80766
2.74371
2.62997
2.57404
2.47761
2.39608
2.35525
0.00184002
0.0497546
0.189299
0.467946
0.792797
1.05968
1.33835
1.54623
1.70757
1.76303
1.82931
1.84536
1.8658
1.85218
1.84529
1.81668
1.7644
1.74989
0.000131885
0.00521659
0.0238682
0.0683995
0.163853
0.250322
0.382106
0.51491
0.668339
0.745032
0.83833
0.909343
0.980341
1.01919
1.06657
1.08093
1.07436
1.08166
4.02184e-05
0.000549477
0.00266669
0.00807288
0.0224427
0.0381711
0.068802
0.109214
0.181686
0.225213
0.268401
0.317746
0.365336
0.405927
0.452436
0.486023
0.491284
0.51107
10.8576
11.6021
8.98693
6.4838
5.1496
4.38925
3.8741
3.49737
3.20337
2.97867
2.79962
2.65241
2.52554
2.43107
2.3416
2.29773
2.25777
2.19854
3.43915
7.57143
8.12315
7.7471
6.90156
6.12696
5.49324
4.98009
4.57252
4.24374
3.98899
3.76199
3.57639
3.41134
3.27001
3.17168
3.05924
3.04689
0.380864
2.345
4.06183
5.01924
5.14637
5.02958
4.75568
4.44352
4.16818
3.9134
3.72072
3.52109
3.37243
3.20893
3.08341
2.96826
2.8499
2.80659
0.0298897
0.386717
1.15047
1.95955
2.5145
2.82794
3.01445
3.06731
3.05471
2.99789
2.9389
2.83501
2.76845
2.65466
2.58121
2.48402
2.38925
2.3436
0.00174021
0.0480027
0.18501
0.469119
0.806361
1.06631
1.31523
1.50954
1.67806
1.75893
1.84173
1.86429
1.88368
1.86856
1.85339
1.82331
1.76427
1.74556
0.000124723
0.0050717
0.0233526
0.0678599
0.165764
0.260588
0.380298
0.498609
0.641206
0.729955
0.837726
0.901991
0.983027
1.0181
1.05616
1.08
1.07531
1.07778
3.81053e-05
0.000523588
0.00257292
0.00797057
0.022551
0.0427416
0.0711312
0.107031
0.163902
0.209661
0.269831
0.310781
0.369083
0.408211
0.443939
0.4819
0.492561
0.509717
10.8753
11.6651
9.0625
6.57107
5.21468
4.42535
3.87502
3.49273
3.18906
2.9684
2.78144
2.63912
2.51538
2.42751
2.35255
2.30947
2.28059
2.23762
3.38542
7.58681
8.17745
7.82169
6.99784
6.19647
5.512
4.98101
4.55528
4.22636
3.95869
3.73163
3.55206
3.39302
3.27638
3.17373
3.08403
3.0622
0.364905
2.34016
4.06814
5.04452
5.20736
5.09518
4.8054
4.46021
4.15887
3.89702
3.69158
3.48697
3.34069
3.17779
3.07731
2.95824
2.86309
2.80695
0.0275587
0.382027
1.14129
1.95222
2.53988
2.88979
3.08362
3.09718
3.06516
2.98294
2.91411
2.80191
2.7335
2.61732
2.55943
2.46742
2.38945
2.33591
0.00166492
0.0475419
0.18456
0.451016
0.804519
1.10047
1.38191
1.55564
1.69133
1.75387
1.82494
1.83967
1.85679
1.83767
1.82697
1.80314
1.76151
1.73888
0.000119914
0.0050521
0.023551
0.0660111
0.164361
0.264629
0.42458
0.541585
0.667212
0.745087
0.839335
0.902556
0.973992
1.00544
1.03701
1.06771
1.0733
1.08107
3.94462e-05
0.000531272
0.00257204
0.00768164
0.0225498
0.0422677
0.0874533
0.129931
0.180932
0.222922
0.271881
0.315217
0.368302
0.403862
0.428353
0.468929
0.487928
0.512649
10.9102
11.6404
9.01496
6.53776
5.20449
4.43229
3.88933
3.51145
3.21033
2.98819
2.8011
2.66052
2.53282
2.44108
2.36041
2.31522
2.27878
2.22986
3.43881
7.53775
8.1074
7.7593
6.95859
6.18805
5.52102
5.0024
4.58038
4.24925
3.98418
3.76171
3.57668
3.41306
3.28964
3.18025
3.086
3.06365
0.38129
2.3721
4.04383
4.98568
5.15786
5.05858
4.79423
4.46895
4.17458
3.91123
3.70631
3.50595
3.36292
3.19766
3.09456
2.96797
2.86509
2.81249
0.0288632
0.389342
1.14239
1.9181
2.48907
2.83751
3.04566
3.08116
3.0582
2.98624
2.91313
2.79824
2.74059
2.63133
2.57461
2.48162
2.3953
2.34182
0.00183219
0.0486949
0.184013
0.441771
0.778893
1.05876
1.33745
1.52284
1.66913
1.74423
1.8079
1.81632
1.84214
1.83367
1.83009
1.81036
1.77347
1.75016
0.000140225
0.00494038
0.0222788
0.0620881
0.15545
0.245867
0.394305
0.517383
0.642247
0.737082
0.827046
0.874287
0.941066
0.986539
1.02742
1.05803
1.07464
1.09246
3.92111e-05
0.000515556
0.00237599
0.00695654
0.0206897
0.0369507
0.0758513
0.118063
0.16683
0.215872
0.270634
0.304496
0.34312
0.385149
0.419377
0.455777
0.483542
0.519643
10.7156
11.4705
8.96123
6.54041
5.21379
4.43035
3.88689
3.51045
3.21058
2.98759
2.79892
2.65752
2.53377
2.45092
2.3808
2.34245
2.32621
2.2645
3.33236
7.46806
8.10582
7.77846
6.98604
6.19232
5.52097
5.00605
4.58412
4.25112
3.97927
3.75016
3.56563
3.41142
3.29763
3.20145
3.12094
3.09804
0.364594
2.30311
4.03296
5.0121
5.18259
5.07514
4.80093
4.4785
4.18404
3.92147
3.71126
3.50267
3.35259
3.18836
3.08598
2.97154
2.87723
2.82843
0.0285795
0.379108
1.12385
1.93011
2.50857
2.85915
3.07067
3.10542
3.08116
3.00667
2.93131
2.81191
2.74566
2.62518
2.55964
2.46747
2.38471
2.3392
0.00173831
0.0467768
0.176068
0.446961
0.790324
1.07869
1.36759
1.55481
1.69788
1.76612
1.83069
1.83965
1.86062
1.84305
1.82769
1.79684
1.74415
1.72801
0.000144056
0.00484752
0.0217485
0.0635234
0.161345
0.252955
0.409211
0.531995
0.656525
0.745255
0.840677
0.892012
0.973006
1.00957
1.04302
1.05836
1.05186
1.06042
4.57311e-05
0.000497086
0.00240382
0.00742818
0.021573
0.0384587
0.077786
0.121523
0.175907
0.222292
0.276627
0.311438
0.364884
0.404527
0.438928
0.469119
0.47476
0.495485
10.8561
11.5859
8.97499
6.51504
5.21422
4.43602
3.89414
3.50636
3.20014
2.97287
2.77952
2.6459
2.52008
2.44457
2.37266
2.3387
2.32151
2.2694
3.49055
7.52051
8.06686
7.71799
6.95518
6.19082
5.53058
5.00226
4.57389
4.23746
3.9557
3.73624
3.54464
3.40187
3.28474
3.19733
3.11684
3.09716
0.385751
2.34461
3.98841
4.93626
5.1542
5.06762
4.81639
4.48096
4.18071
3.91745
3.69783
3.49669
3.33481
3.18013
3.07039
2.96426
2.87391
2.82192
0.029293
0.380725
1.11452
1.89486
2.48705
2.86488
3.07924
3.1075
3.08116
3.00597
2.93094
2.81928
2.74266
2.62409
2.55015
2.4559
2.3821
2.33207
0.00171652
0.0469994
0.177419
0.435412
0.761125
1.07303
1.36473
1.55188
1.69582
1.7652
1.83927
1.85817
1.87473
1.85481
1.83437
1.79175
1.73959
1.71996
0.00013051
0.00489254
0.0216937
0.061362
0.143095
0.253512
0.41372
0.538855
0.666311
0.74374
0.850896
0.906794
0.992231
1.02762
1.05439
1.06121
1.05127
1.05479
4.42562e-05
0.000496171
0.00233742
0.00699352
0.0184839
0.0386509
0.0803771
0.126117
0.180853
0.217764
0.277786
0.311481
0.377684
0.419902
0.451851
0.478293
0.481886
0.494268
10.8475
11.598
8.9825
6.49844
5.17701
4.42228
3.87179
3.4974
3.17722
2.9687
2.78149
2.66536
2.55367
2.48073
2.42725
2.40263
2.42133
2.38347
3.4518
7.54162
8.09373
7.73741
6.92731
6.18091
5.50968
4.99312
4.53861
4.21429
3.94237
3.74009
3.57704
3.42357
3.32483
3.22341
3.15244
3.16979
0.381398
2.37774
4.06786
5.00912
5.16037
5.06648
4.80661
4.48329
4.16378
3.89471
3.67402
3.4741
3.34382
3.18534
3.09617
2.9754
2.86885
2.82742
0.0289005
0.389248
1.14925
1.94196
2.492
2.85066
3.08035
3.12377
3.09497
3.00972
2.91662
2.7804
2.71587
2.6087
2.55528
2.46503
2.36871
2.30961
0.00178336
0.049271
0.182368
0.466762
0.7785
1.05874
1.35984
1.56196
1.72422
1.79353
1.84316
1.83125
1.83397
1.8171
1.80931
1.78789
1.73178
1.69108
0.000147413
0.00506509
0.0223746
0.0661776
0.156288
0.241372
0.403694
0.534965
0.687176
0.776988
0.869186
0.900563
0.949028
0.979843
1.01376
1.04453
1.03975
1.02644
3.75972e-05
0.000521179
0.00247704
0.0075867
0.0204572
0.0354446
0.0763679
0.118417
0.189393
0.238918
0.295248
0.324379
0.356807
0.385441
0.410929
0.451562
0.462275
0.466102
10.9064
11.6124
9.01766
6.52322
5.17704
4.40684
3.86678
3.49573
3.17571
2.96063
2.76828
2.64332
2.52499
2.44509
2.37071
2.33544
2.29401
2.26152
3.41866
7.57551
8.15556
7.78262
6.92547
6.1491
5.48872
4.98368
4.5346
4.2081
3.9292
3.72341
3.55149
3.4027
3.29535
3.19464
3.10257
3.09803
0.371626
2.36034
4.06043
5.00147
5.1368
5.03092
4.7642
4.45469
4.14767
3.88535
3.6627
3.46727
3.32678
3.17071
3.08507
2.96398
2.87389
2.82291
0.0288836
0.388282
1.14148
1.94292
2.50495
2.84006
3.0437
3.0818
3.05889
2.98703
2.9006
2.77918
2.71367
2.59586
2.55168
2.455
2.39051
2.33631
0.00181971
0.0488606
0.181323
0.461058
0.795738
1.06907
1.34627
1.5235
1.68387
1.7576
1.82453
1.82487
1.83619
1.81942
1.80957
1.78058
1.74618
1.72687
0.000164115
0.00509873
0.0224653
0.0659265
0.161795
0.252056
0.404166
0.511047
0.660115
0.748861
0.854552
0.904577
0.962042
1.00047
1.02791
1.04112
1.04685
1.05843
3.62902e-05
0.000494538
0.00236262
0.00735627
0.0213528
0.0390083
0.0795978
0.112439
0.177986
0.224464
0.285191
0.327814
0.362744
0.410024
0.432227
0.456868
0.470145
0.494902
10.817
11.5608
8.9781
6.51657
5.20867
4.43587
3.89978
3.51451
3.20177
2.97751
2.78047
2.64871
2.52425
2.43818
2.36278
2.32029
2.27421
2.22961
3.3844
7.48296
8.08284
7.74401
6.9713
6.19499
5.53621
5.00922
4.56995
4.24025
3.95162
3.74105
3.55426
3.39269
3.28433
3.17981
3.09833
3.07112
0.370678
2.33166
4.04149
5.00979
5.18676
5.07999
4.80875
4.4799
4.17323
3.91533
3.68542
3.48928
3.34067
3.16725
3.07664
2.94665
2.86983
2.81969
0.0285227
0.378706
1.11895
1.92983
2.50901
2.85233
3.05752
3.09618
3.07299
3.00244
2.91786
2.79479
2.7317
2.6063
2.54948
2.4427
2.376
2.335
0.00179645
0.0475647
0.177961
0.448924
0.784585
1.06819
1.34897
1.54273
1.70123
1.77467
1.83859
1.83608
1.84717
1.83329
1.81802
1.77704
1.73084
1.72003
0.000129099
0.00489637
0.0220374
0.0641742
0.15602
0.256948
0.401631
0.523604
0.672393
0.758811
0.864855
0.907452
0.959551
1.009
1.03857
1.0431
1.03953
1.05114
3.38349e-05
0.000502899
0.00240265
0.00736235
0.0202913
0.0407278
0.0783182
0.118153
0.182996
0.226631
0.289816
0.325285
0.353806
0.404428
0.439422
0.464045
0.472376
0.494263
10.9544
11.6475
9.01658
6.52938
5.20921
4.41675
3.87725
3.50343
3.20355
2.99656
2.80723
2.66823
2.54163
2.44977
2.35921
2.31512
2.24625
2.20787
3.48519
7.56743
8.12212
7.7639
6.96946
6.17042
5.50177
4.98887
4.56444
4.26447
3.9901
3.77002
3.58929
3.42265
3.29708
3.19697
3.09194
3.06215
0.3804
2.37243
4.05884
5.00232
5.17081
5.06215
4.782
4.45613
4.1552
3.92095
3.7147
3.51725
3.37511
3.20175
3.09928
2.97662
2.88647
2.83102
0.0300023
0.39459
1.15165
1.9331
2.50266
2.86296
3.05974
3.08685
3.05793
2.98327
2.92233
2.81801
2.75735
2.63427
2.57514
2.47342
2.40829
2.36201
0.0018511
0.0494027
0.18574
0.457659
0.780756
1.0882
1.36912
1.54185
1.68358
1.73476
1.80569
1.83672
1.85861
1.84606
1.83522
1.79794
1.76288
1.75225
0.000132032
0.00523529
0.0231887
0.0663493
0.149989
0.265051
0.422181
0.535634
0.659398
0.724797
0.803939
0.886559
0.959296
1.00613
1.04281
1.05215
1.05721
1.07811
4.38401e-05
0.000557453
0.00253119
0.00755697
0.019098
0.0418683
0.0845569
0.12546
0.179785
0.21469
0.249159
0.301348
0.353272
0.402538
0.443195
0.465803
0.474195
0.505431
10.9896
11.6468
9.01677
6.52042
5.2025
4.43035
3.89271
3.51139
3.19814
2.98422
2.79471
2.66042
2.53787
2.45476
2.37026
2.33672
2.29938
2.24725
3.49144
7.61155
8.15856
7.78346
6.9566
6.18753
5.53405
5.01284
4.56485
4.24298
3.96711
3.75211
3.57444
3.42231
3.29584
3.20433
3.10578
3.08894
0.385733
2.4012
4.10877
5.03251
5.16713
5.06194
4.80749
4.49102
4.17552
3.91347
3.69522
3.499
3.35341
3.20015
3.09147
2.97662
2.87811
2.83131
0.0303393
0.396941
1.16333
1.94793
2.49016
2.83269
3.06645
3.11247
3.0877
3.00451
2.9191
2.80904
2.73889
2.63167
2.57105
2.46973
2.39345
2.34611
0.00184302
0.0496622
0.187072
0.476378
0.787087
1.05484
1.34658
1.54027
1.7023
1.76398
1.82209
1.84326
1.85999
1.84711
1.84011
1.80187
1.75078
1.73264
0.000131999
0.00521466
0.0236364
0.0725713
0.160306
0.242049
0.391649
0.512394
0.662785
0.747208
0.8332
0.904524
0.976294
1.01327
1.06485
1.06646
1.05705
1.06147
4.00305e-05
0.000548774
0.00265287
0.00868227
0.0219375
0.0361585
0.0714596
0.109025
0.178114
0.225101
0.268774
0.313889
0.362905
0.400684
0.452691
0.480175
0.480593
0.496225
10.8582
11.599
8.99205
6.4825
5.15353
4.39404
3.87474
3.50693
3.20801
2.99071
2.81027
2.67056
2.5463
2.45744
2.37962
2.34206
2.32474
2.26653
3.43969
7.56791
8.12658
7.74734
6.90261
6.13053
5.49036
4.98931
4.57276
4.2524
3.9945
3.77462
3.58891
3.42694
3.29615
3.19706
3.09856
3.0958
0.380936
2.34268
4.06228
5.02018
5.14536
5.02995
4.75446
4.44741
4.16652
3.91761
3.72021
3.52647
3.37617
3.21282
3.09368
2.97429
2.85898
2.82047
0.0299018
0.386374
1.14836
1.96364
2.51073
2.82642
3.01635
3.06518
3.05245
2.99899
2.9362
2.83325
2.76654
2.65145
2.58121
2.47796
2.38127
2.33609
0.00174216
0.0479702
0.183503
0.475709
0.80321
1.06078
1.32188
1.50358
1.67475
1.76156
1.83626
1.85998
1.87976
1.86368
1.8489
1.81272
1.75054
1.72871
0.00012555
0.00507378
0.0232069
0.0699013
0.166367
0.252147
0.389441
0.494173
0.637669
0.732659
0.834255
0.898713
0.977332
1.01325
1.05359
1.06807
1.06021
1.05845
3.82263e-05
0.000523622
0.00256518
0.00831599
0.0230899
0.0391625
0.0752015
0.103953
0.1628
0.211063
0.267953
0.30971
0.364566
0.404928
0.442804
0.474987
0.483947
0.494502
10.8742
11.6639
9.06558
6.57058
5.21777
4.42772
3.87752
3.49798
3.19339
2.97706
2.78937
2.6509
2.52868
2.4453
2.37001
2.33369
2.30629
2.26125
3.38465
7.58528
8.17914
7.82195
6.99917
6.1975
5.5129
4.98497
4.55679
4.23289
3.96328
3.73963
3.56126
3.40607
3.2888
3.1927
3.10502
3.08551
0.364842
2.33869
4.06811
5.04572
5.2065
5.09499
4.80555
4.46173
4.15849
3.89933
3.69315
3.48946
3.34346
3.18371
3.08223
2.96428
2.87321
2.81842
0.0275634
0.381668
1.14015
1.95532
2.53677
2.88973
3.08325
3.0964
3.06451
2.98098
2.91406
2.8011
2.73105
2.61744
2.56044
2.46272
2.38944
2.33879
0.00166657
0.0474744
0.182893
0.455551
0.800385
1.1005
1.3821
1.5535
1.69216
1.75002
1.82342
1.83908
1.8531
1.83318
1.82549
1.79628
1.75287
1.73398
0.000120272
0.00503771
0.023345
0.0666074
0.16159
0.265529
0.425416
0.539249
0.669785
0.741218
0.836259
0.906049
0.967557
0.998639
1.0404
1.05981
1.06108
1.06918
3.95642e-05
0.000529232
0.00255819
0.0077139
0.0221173
0.0425462
0.0871689
0.127695
0.184487
0.221979
0.26854
0.318685
0.364923
0.397081
0.431999
0.465264
0.478682
0.501438
10.9111
11.6382
9.01725
6.53649
5.20723
4.43228
3.89141
3.51389
3.21244
2.99326
2.80466
2.6692
2.53943
2.45363
2.37422
2.3296
2.30885
2.25339
3.43953
7.53571
8.10868
7.75861
6.9605
6.18674
5.52247
5.00438
4.57993
4.25406
3.98455
3.76914
3.57878
3.4231
3.29719
3.18745
3.10987
3.0794
0.381384
2.37143
4.04367
4.98521
5.15839
5.05843
4.79481
4.4699
4.17278
3.91432
3.70439
3.51022
3.36125
3.20321
3.09767
2.96483
2.87779
2.8188
0.0288759
0.389308
1.14137
1.91908
2.48846
2.83649
3.04648
3.08087
3.05743
2.98637
2.91183
2.79865
2.73841
2.63115
2.57774
2.4724
2.39711
2.34301
0.00183411
0.048705
0.183792
0.444091
0.776724
1.058
1.33846
1.52132
1.66977
1.74367
1.80697
1.81487
1.83853
1.83115
1.83092
1.80796
1.76451
1.7446
0.000140885
0.00494303
0.0220951
0.0622964
0.155859
0.244372
0.395565
0.514875
0.645101
0.73549
0.82743
0.871846
0.939414
0.979734
1.02958
1.06119
1.06519
1.08014
3.89635e-05
0.000514985
0.00235974
0.00698887
0.0207624
0.036812
0.0751554
0.116664
0.168656
0.215718
0.270829
0.301783
0.342643
0.37929
0.419046
0.462757
0.479702
0.508437
10.7146
11.4728
8.96045
6.53979
5.2148
4.42776
3.89034
3.50786
3.21294
2.98869
2.79879
2.65885
2.53412
2.45204
2.38231
2.34423
2.33065
2.27279
3.33107
7.47044
8.10561
7.77792
6.98749
6.18796
5.52611
5.00159
4.58636
4.2533
3.97739
3.75314
3.56454
3.41252
3.29798
3.20071
3.12479
3.09892
0.364424
2.30359
4.03451
5.0116
5.18336
5.07402
4.80312
4.47473
4.18434
3.92324
3.70932
3.50603
3.35083
3.19014
3.08642
2.96852
2.88114
2.82826
0.0285618
0.379214
1.1261
1.92878
2.51033
2.85829
3.07019
3.10439
3.07998
3.00587
2.93059
2.81485
2.74473
2.62664
2.5615
2.46362
2.38778
2.3397
0.00173524
0.0467768
0.175893
0.445999
0.791479
1.08115
1.36415
1.55566
1.69718
1.7631
1.83034
1.84189
1.86008
1.84403
1.82954
1.79703
1.74542
1.72851
0.00014319
0.00484347
0.0217657
0.0627814
0.158324
0.263074
0.404358
0.5321
0.657466
0.740383
0.840523
0.89327
0.971301
1.01186
1.04451
1.06013
1.05286
1.0613
4.54272e-05
0.000497079
0.00241092
0.00737012
0.0208428
0.0410497
0.0752756
0.121519
0.178043
0.219989
0.276821
0.309854
0.364069
0.406078
0.438929
0.471763
0.476627
0.496809
10.858
11.5849
8.97505
6.51421
5.21342
4.43603
3.89092
3.50653
3.195
2.97228
2.77293
2.64242
2.51321
2.43835
2.36092
2.33255
2.30258
2.2629
3.49192
7.51983
8.06694
7.71768
6.9542
6.19214
5.52735
5.00417
4.56896
4.23923
3.94911
3.73474
3.53941
3.39661
3.27712
3.19078
3.10367
3.0839
0.385874
2.3454
3.98793
4.93596
5.15391
5.06794
4.81531
4.48318
4.17769
3.92029
3.69451
3.49671
3.33283
3.17662
3.07022
2.95831
2.87199
2.81691
0.0292959
0.381058
1.11359
1.89499
2.48712
2.86415
3.08037
3.10828
3.08135
3.00772
2.93182
2.82068
2.74224
2.62267
2.55442
2.45238
2.38593
2.33382
0.00171446
0.0470905
0.178203
0.435198
0.761921
1.07024
1.36642
1.55252
1.6956
1.76719
1.84088
1.86088
1.8763
1.85655
1.83681
1.79099
1.74643
1.72546
0.000130036
0.00491105
0.0217504
0.0614244
0.144655
0.252483
0.414494
0.538199
0.666584
0.745554
0.850889
0.911327
0.991518
1.03147
1.0584
1.06176
1.0562
1.06137
4.413e-05
0.000497711
0.00233952
0.00702047
0.0190172
0.0386378
0.0815399
0.124696
0.180464
0.219533
0.277122
0.31595
0.375749
0.422638
0.456122
0.477924
0.48413
0.499399
10.8461
11.6
8.98074
6.49789
5.17465
4.42096
3.86873
3.49323
3.17224
2.96424
2.77103
2.65671
2.53807
2.46459
2.3986
2.37685
2.36546
2.33798
3.45042
7.5438
8.09297
7.73728
6.92592
6.18112
5.5077
4.99049
4.53562
4.21319
3.93357
3.73753
3.5661
3.41444
3.30779
3.20904
3.12119
3.13678
0.381239
2.37835
4.06843
5.00975
5.15988
5.0667
4.80647
4.48328
4.16151
3.89677
3.66929
3.4747
3.34013
3.1822
3.09248
2.97015
2.86525
2.82073
0.028891
0.389287
1.14972
1.94233
2.49146
2.85178
3.0813
3.1252
3.09465
3.01182
2.91637
2.78069
2.71694
2.60952
2.55893
2.46494
2.37994
2.32022
0.00178241
0.0492671
0.185658
0.466518
0.777222
1.05887
1.35914
1.5683
1.71927
1.79529
1.84649
1.83249
1.83568
1.82031
1.8131
1.79078
1.74701
1.709
0.000147192
0.00505978
0.0227347
0.066429
0.156147
0.246242
0.398421
0.542303
0.683095
0.775108
0.874298
0.902845
0.948053
0.984904
1.01804
1.04766
1.05038
1.04445
3.73386e-05
0.000522053
0.00251055
0.00764812
0.0203845
0.0372149
0.0746722
0.123077
0.18703
0.239404
0.296918
0.326708
0.355578
0.388976
0.413721
0.453369
0.468037
0.478856
10.9038
11.6173
9.01205
6.52542
5.17356
4.40313
3.86552
3.48611
3.17127
2.9509
2.75561
2.63
2.50309
2.42493
2.3361
2.30223
2.24277
2.21976
3.41615
7.58061
8.15169
7.78263
6.92513
6.14661
5.49159
4.97435
4.53409
4.20208
3.91969
3.71768
3.53531
3.39217
3.26882
3.17417
3.07003
3.05617
0.371297
2.36233
4.06014
5.00063
5.1377
5.03123
4.76651
4.45067
4.14802
3.88421
3.65844
3.4671
3.31954
3.17002
3.07382
2.95655
2.86896
2.8069
0.0288479
0.388323
1.14397
1.93864
2.50745
2.84243
3.04338
3.08383
3.05973
2.98812
2.90154
2.78083
2.71236
2.59997
2.55323
2.45549
2.40119
2.34066
0.00181519
0.0487873
0.185829
0.453568
0.796868
1.0747
1.3415
1.53108
1.68158
1.75909
1.82775
1.82819
1.83786
1.82229
1.81556
1.78789
1.75967
1.73998
0.000162526
0.00507381
0.0229053
0.0651846
0.16077
0.261363
0.395987
0.519209
0.655416
0.749506
0.85813
0.905777
0.966696
1.00071
1.03393
1.05154
1.06248
1.06857
3.61459e-05
0.000491032
0.00239675
0.007293
0.02142
0.0417557
0.0770226
0.117551
0.174594
0.224678
0.288203
0.326733
0.369035
0.407284
0.436983
0.464633
0.483886
0.504056
3.25443e-05
8.37563e-05
0.000266717
0.000718131
0.00177374
0.00400654
0.00712154
0.0124889
0.0241603
0.0326482
0.0469315
0.0585866
0.0652028
0.0798376
0.093042
0.107335
0.115954
0.130404
2.72156e-05
3.95486e-05
7.69784e-05
0.000142525
0.000282699
0.000465758
0.000655672
0.00107632
0.00209249
0.00300712
0.00440767
0.00586881
0.0066605
0.00805587
0.0102401
0.0120215
0.0141251
0.0168331
2.9613e-05
3.7381e-05
4.03537e-05
4.91451e-05
8.54746e-05
0.000137292
0.000177721
0.000217439
0.000267259
0.000346057
0.000442223
0.000567154
0.000681024
0.000826584
0.000998847
0.00103673
0.00123358
0.00157974
2.19286e-05
2.64403e-05
3.37874e-05
4.29771e-05
4.98807e-05
5.87938e-05
6.59085e-05
8.5243e-05
9.9822e-05
0.000110372
0.000112645
0.000120778
0.000132138
0.000151786
0.000178101
0.00019139
0.000208945
0.00025377
2.46074e-05
2.88092e-05
3.33252e-05
3.9295e-05
4.377e-05
5.07734e-05
5.83912e-05
5.86366e-05
6.30709e-05
7.13246e-05
7.87797e-05
8.78475e-05
9.2838e-05
9.37661e-05
9.58879e-05
0.000103766
0.000109362
0.000110097
2.51283e-05
2.9293e-05
3.08459e-05
3.17855e-05
3.35216e-05
3.63798e-05
4.0175e-05
4.73507e-05
5.1081e-05
5.79668e-05
6.43222e-05
7.64454e-05
8.71751e-05
9.19564e-05
0.000102281
0.000115928
0.000126777
0.000148919
2.3422e-05
2.58405e-05
2.67856e-05
3.07737e-05
3.50649e-05
3.57465e-05
3.49281e-05
3.58198e-05
3.89396e-05
4.42974e-05
4.66258e-05
4.9608e-05
5.36435e-05
6.10273e-05
7.05621e-05
7.57815e-05
8.28343e-05
8.98469e-05
2.31598e-05
2.38554e-05
2.49883e-05
2.83058e-05
3.05694e-05
3.26957e-05
3.54972e-05
3.81664e-05
3.94297e-05
3.89403e-05
4.0144e-05
4.33425e-05
4.82084e-05
5.26436e-05
5.80647e-05
6.08704e-05
6.37031e-05
6.79234e-05
2.31173e-05
2.51571e-05
2.59507e-05
2.7923e-05
3.00836e-05
3.32231e-05
3.71862e-05
3.95175e-05
4.54427e-05
4.87369e-05
4.6647e-05
4.14655e-05
3.94552e-05
4.13935e-05
4.33844e-05
4.62223e-05
5.14665e-05
5.42232e-05
2.20894e-05
2.38486e-05
2.62504e-05
2.76797e-05
2.80218e-05
2.79725e-05
2.97455e-05
3.31112e-05
3.87349e-05
4.37258e-05
4.46856e-05
4.48138e-05
4.57186e-05
4.66638e-05
4.64594e-05
4.71576e-05
4.8484e-05
5.38067e-05
4.40604e-05
0.000100459
0.000259339
0.000632856
0.00163144
0.00385806
0.00767015
0.0147369
0.0239886
0.0297725
0.0363956
0.0478521
0.0603974
0.0816242
0.0962394
0.108374
0.113679
0.129686
2.64544e-05
4.80464e-05
7.94809e-05
0.000110639
0.000187886
0.000332841
0.000570415
0.00111407
0.00190421
0.00244047
0.00300349
0.0039573
0.00524396
0.00823646
0.0104252
0.0119895
0.0125146
0.014504
2.25467e-05
4.09303e-05
6.62718e-05
7.51533e-05
8.31694e-05
9.36949e-05
0.000111243
0.000152078
0.000209326
0.000283079
0.000359979
0.000404535
0.000489262
0.000704456
0.00088593
0.00098086
0.000999122
0.00104706
2.60126e-05
3.01562e-05
3.52477e-05
4.26877e-05
5.67645e-05
6.36466e-05
7.63637e-05
8.49838e-05
8.8553e-05
9.72751e-05
0.00011455
0.000129093
0.000149733
0.000167516
0.000192841
0.00021714
0.000240116
0.000289342
2.43594e-05
2.57124e-05
2.77877e-05
3.39761e-05
4.18348e-05
5.48538e-05
6.18938e-05
6.64795e-05
6.62534e-05
6.18461e-05
6.25106e-05
6.48318e-05
7.59093e-05
9.42693e-05
0.000119292
0.000134731
0.000144265
0.000164697
2.31336e-05
2.42784e-05
2.48237e-05
2.88266e-05
3.38258e-05
3.66708e-05
4.28626e-05
5.71818e-05
6.96037e-05
7.08807e-05
6.70807e-05
6.82079e-05
6.80084e-05
6.69875e-05
7.119e-05
7.68479e-05
8.55737e-05
0.000102055
2.46186e-05
2.74025e-05
2.94016e-05
3.07028e-05
3.16264e-05
3.51087e-05
3.76474e-05
4.11605e-05
4.92951e-05
5.38067e-05
5.45693e-05
5.0754e-05
4.97895e-05
5.07433e-05
5.48806e-05
6.03726e-05
6.68128e-05
8.38503e-05
2.28887e-05
2.67404e-05
2.8721e-05
2.78717e-05
2.78022e-05
2.87878e-05
3.18002e-05
3.56641e-05
3.80874e-05
4.49914e-05
4.72926e-05
4.88018e-05
5.02673e-05
5.21339e-05
5.30075e-05
5.2489e-05
5.66775e-05
5.93515e-05
2.24442e-05
2.64355e-05
3.07804e-05
3.29429e-05
3.30302e-05
3.34024e-05
3.4515e-05
3.71211e-05
3.9878e-05
4.19572e-05
4.11095e-05
4.10672e-05
4.25635e-05
4.39539e-05
4.91408e-05
5.56181e-05
6.02312e-05
6.40208e-05
2.24541e-05
2.34997e-05
2.65377e-05
3.03078e-05
3.34629e-05
3.37899e-05
3.31853e-05
3.47862e-05
3.76074e-05
3.97164e-05
4.27967e-05
4.48859e-05
4.94056e-05
5.0457e-05
4.98556e-05
4.8353e-05
4.69598e-05
4.90605e-05
4.15999e-05
9.26157e-05
0.000287824
0.000794286
0.00202198
0.0032332
0.00599235
0.0107092
0.0228484
0.033185
0.0407102
0.0523595
0.0643455
0.077664
0.0959761
0.113042
0.116825
0.126129
2.60281e-05
3.98336e-05
8.23179e-05
0.000148327
0.000273116
0.00035529
0.000540263
0.00089832
0.00188064
0.00296328
0.00355212
0.00460947
0.00591767
0.00737871
0.0101643
0.0136613
0.0148035
0.0155939
2.53762e-05
3.71696e-05
4.64701e-05
7.78336e-05
0.000112205
0.000134705
0.000162673
0.000187122
0.000255673
0.000380517
0.000463572
0.000510954
0.000608728
0.000666026
0.000824155
0.00105656
0.00121781
0.0011398
2.64656e-05
3.31038e-05
3.53629e-05
4.17433e-05
5.06582e-05
6.34235e-05
9.12717e-05
0.000107721
0.000115733
0.000136469
0.00015801
0.000170851
0.000184983
0.000193572
0.000200444
0.000229773
0.000246242
0.000240206
2.56681e-05
2.90924e-05
3.39254e-05
4.00902e-05
4.35818e-05
4.9333e-05
5.65394e-05
5.86034e-05
5.72352e-05
5.93122e-05
5.94779e-05
6.11205e-05
6.93629e-05
8.0816e-05
0.000103087
0.00012776
0.000136011
0.000137513
2.40806e-05
2.66914e-05
2.84177e-05
3.40206e-05
3.88067e-05
4.28642e-05
4.70248e-05
4.95921e-05
5.13656e-05
5.71526e-05
5.88631e-05
5.33461e-05
5.2393e-05
5.76398e-05
6.54344e-05
8.41857e-05
9.11599e-05
0.000100569
2.23351e-05
2.40567e-05
2.62201e-05
3.00864e-05
3.26113e-05
3.40448e-05
3.54097e-05
3.95594e-05
5.12532e-05
5.72833e-05
5.64717e-05
5.3519e-05
5.52817e-05
5.94115e-05
6.0047e-05
6.03271e-05
6.39191e-05
6.24153e-05
2.2139e-05
2.54538e-05
2.71228e-05
2.76985e-05
2.91305e-05
3.0781e-05
3.52959e-05
3.8214e-05
3.91663e-05
3.95456e-05
4.22569e-05
4.4415e-05
4.69297e-05
4.9265e-05
5.11692e-05
5.29823e-05
5.48389e-05
5.58895e-05
2.26815e-05
2.49965e-05
2.68128e-05
2.87504e-05
3.1332e-05
3.33378e-05
3.48679e-05
3.45679e-05
3.34888e-05
3.27952e-05
3.43099e-05
3.81693e-05
4.21927e-05
4.55661e-05
4.79705e-05
4.83954e-05
4.72644e-05
4.76594e-05
2.17307e-05
2.46544e-05
2.83054e-05
3.15305e-05
3.09735e-05
3.18861e-05
3.40686e-05
3.59943e-05
3.79106e-05
4.09391e-05
4.81229e-05
5.65712e-05
5.75909e-05
5.46617e-05
5.20083e-05
5.32887e-05
5.4599e-05
5.38866e-05
3.51217e-05
0.00010076
0.000329838
0.000785304
0.0020787
0.00403062
0.00703072
0.0111838
0.0199787
0.0288239
0.0415577
0.051818
0.0672204
0.081299
0.0950919
0.110331
0.116012
0.126113
3.03703e-05
5.13313e-05
0.000106606
0.000145699
0.000226535
0.000366391
0.000545488
0.00080739
0.00143037
0.00226878
0.00352483
0.00475335
0.00623378
0.00824576
0.010285
0.0129238
0.0137816
0.01498
3.09308e-05
3.90842e-05
5.33722e-05
8.10911e-05
9.57811e-05
0.000108925
0.000146011
0.000173004
0.00020125
0.000225526
0.000285099
0.000405186
0.000491594
0.00059943
0.000817759
0.00105095
0.00110773
0.00109507
2.45621e-05
2.71843e-05
3.31047e-05
4.44449e-05
5.63613e-05
7.05523e-05
7.69147e-05
8.62997e-05
9.37331e-05
0.000107347
0.000114149
0.000125662
0.000134158
0.000133125
0.000146313
0.000179199
0.000201077
0.000243583
2.41589e-05
2.77993e-05
3.10427e-05
3.41391e-05
3.72312e-05
4.48687e-05
5.68377e-05
6.44473e-05
6.90933e-05
6.93175e-05
6.82759e-05
7.58934e-05
9.55081e-05
0.0001014
0.000102447
0.000111375
0.000122517
0.000139225
2.25194e-05
2.36251e-05
2.43558e-05
2.95422e-05
4.32104e-05
5.52424e-05
5.74744e-05
5.36228e-05
5.01154e-05
5.18028e-05
5.54378e-05
5.96131e-05
6.4059e-05
7.0312e-05
7.97266e-05
8.78173e-05
8.53264e-05
7.38356e-05
2.2273e-05
2.43505e-05
2.72723e-05
2.88787e-05
3.30374e-05
4.036e-05
4.25235e-05
4.33505e-05
4.60315e-05
4.7124e-05
4.85227e-05
4.62813e-05
4.63024e-05
5.06372e-05
5.72037e-05
7.00461e-05
8.77585e-05
9.21281e-05
2.29667e-05
2.5278e-05
2.73528e-05
2.79e-05
2.81178e-05
2.80991e-05
3.11624e-05
3.73588e-05
4.14147e-05
4.14428e-05
4.13214e-05
4.06372e-05
4.10614e-05
4.55899e-05
5.1146e-05
5.72855e-05
6.1009e-05
6.04555e-05
2.35523e-05
2.66533e-05
2.99178e-05
3.36569e-05
3.52398e-05