/*--------------------------------*- C++ -*----------------------------------*\
| =========                 |                                                 |
| \\      /  F ield         | OpenFOAM: The Open Source CFD Toolbox           |
|  \\    /   O peration     | Version:  3.0.1                                 |
|   \\  /    A nd           | Web:      www.OpenFOAM.org                      |
|    \\/     M anipulation  |                                                 |
\*---------------------------------------------------------------------------*/
FoamFile
{
    version     2.0;
    format      ascii;
    class       volScalarField;
    location    "0.1";
    object      k_mode_1;
}
// * * * * * * * * * * * * * * * * * * * * * * * * * * * * * * * * * * * * * //

dimensions      [0 0 0 0 0 0 0];

internalField   nonuniform List<scalar> 
244500
(
0.275216
0.482713
0.448419
0.384468
0.315454
0.268869
0.239148
0.222095
0.213784
0.234898
0.223418
0.265937
0.257811
0.293204
0.276434
0.30071
0.201395
0.231762
0.0466042
0.303758
0.405808
0.433448
0.436569
0.382469
0.335232
0.299829
0.277416
0.291081
0.258217
0.31064
0.293491
0.321289
0.334921
0.357247
0.372541
0.369826
-0.00913035
0.0439947
0.170493
0.285096
0.315522
0.305004
0.276768
0.254851
0.229413
0.233394
0.198617
0.224224
0.218679
0.214269
0.246131
0.231095
0.303428
0.317943
-0.00046511
0.00709654
0.0271025
0.0979274
0.13432
0.137877
0.1481
0.159855
0.154696
0.145776
0.133234
0.115546
0.116755
0.0981271
0.122436
0.0896822
0.145589
0.172133
0.000182722
0.00152467
0.00316503
0.00950401
0.0391113
0.0363224
0.0491059
0.0893657
0.0916766
0.0788833
0.0811373
0.0478287
0.0268373
0.0193026
0.00989171
-0.0154795
-0.00464915
0.00656766
2.25799e-05
8.1877e-06
-0.000387391
0.00249238
0.0130205
0.00632682
-0.0032575
0.0291621
0.0403983
0.0197122
0.0349317
0.00702419
-0.0314762
-0.0264134
-0.0562873
-0.0889149
-0.0956924
-0.112705
-5.91443e-07
-3.0033e-05
-0.000174048
9.50815e-05
0.00209005
0.00440332
-0.00843265
0.00277744
0.0188288
-0.0013533
0.00736445
-0.00412602
-0.0390524
-0.032955
-0.056211
-0.0862205
-0.0956235
-0.126277
0.649367
0.595994
0.429287
0.333325
0.266627
0.210871
0.188432
0.188096
0.20276
0.255133
0.260525
0.288981
0.269831
0.285614
0.227368
0.235845
0.0805724
0.131034
0.269636
0.441585
0.421676
0.407245
0.359499
0.28442
0.240421
0.225592
0.235943
0.307932
0.31438
0.361086
0.343229
0.365237
0.323766
0.338632
0.302028
0.313547
0.0203997
0.124004
0.182693
0.229673
0.226937
0.211558
0.180073
0.167379
0.156898
0.201254
0.219757
0.266996
0.268601
0.283403
0.279847
0.264215
0.296355
0.314606
0.00349662
0.0343048
0.0669188
0.0553293
0.0665837
0.0964874
0.101498
0.10314
0.0881732
0.0612784
0.0850678
0.124689
0.145035
0.155079
0.17437
0.158857
0.193771
0.217861
0.00030178
0.0038162
0.0126794
0.0024629
0.0108582
0.0488528
0.0545524
0.0679918
0.0399414
-0.0344979
-0.0382654
-0.00786968
0.0180317
0.0315058
0.049624
0.0497265
0.0701567
0.0861234
3.66823e-05
0.000401409
0.0004228
-0.00354678
-0.00638183
0.0177837
0.0129587
0.0403434
0.0256777
-0.0532343
-0.105252
-0.0765107
-0.0704328
-0.0552538
-0.0354967
-0.0433134
-0.0315555
-0.0332816
1.97067e-05
3.70051e-05
-0.000202627
-0.00110322
-0.00372864
0.00325149
-0.00500555
0.0184616
0.0187157
-0.0156068
-0.0740186
-0.0663247
-0.0695234
-0.0618325
-0.0514323
-0.0634166
-0.0658353
-0.0829441
0.757763
0.644161
0.423423
0.307927
0.266848
0.256721
0.223277
0.22031
0.194584
0.229263
0.230741
0.245117
0.255263
0.277589
0.275882
0.304584
0.309051
0.310861
0.280947
0.447961
0.406705
0.382462
0.348029
0.356112
0.32136
0.308175
0.25601
0.281706
0.271445
0.27388
0.293904
0.30833
0.310456
0.339388
0.334029
0.401209
0.0381098
0.217875
0.270491
0.266402
0.253657
0.264542
0.27392
0.276684
0.226696
0.218033
0.210312
0.199636
0.211396
0.224328
0.222129
0.24785
0.222135
0.281066
0.00416899
0.0418416
0.0933938
0.0756334
0.0664203
0.104008
0.166814
0.189559
0.180172
0.136976
0.127148
0.117931
0.108224
0.118159
0.115452
0.136272
0.101231
0.123266
0.000152478
0.00500628
0.0181666
0.027831
0.0101887
0.0103233
0.0513344
0.0832987
0.105596
0.0475776
0.0309648
0.0433946
0.0312924
0.0297581
0.0320142
0.0384866
0.00671899
-0.00950793
4.08229e-06
0.000632912
0.00261463
0.00334259
-0.000711334
-0.0195337
-0.00774174
0.00730376
0.0462459
0.0040674
-0.039905
-0.00522678
-0.0129436
-0.0275986
-0.0138237
-0.0209766
-0.0498838
-0.0993635
2.18737e-05
8.08536e-05
0.000227087
0.000146453
-0.0012366
-0.00703448
-0.00878439
-0.00869226
0.016506
0.00903626
-0.0418494
-0.0230367
-0.0253608
-0.0475828
-0.0331859
-0.0414295
-0.068145
-0.122358
0.439153
0.412398
0.31689
0.223481
0.162551
0.168454
0.193671
0.200883
0.23105
0.239728
0.279
0.272167
0.295847
0.307614
0.348895
0.389135
0.496769
0.490936
0.16684
0.331388
0.341391
0.311066
0.223208
0.204391
0.235822
0.234371
0.279855
0.283954
0.338233
0.323942
0.335043
0.335043
0.337026
0.378469
0.396158
0.496065
0.0276005
0.0558705
0.123906
0.170741
0.148189
0.141419
0.152108
0.159129
0.202032
0.198064
0.254124
0.257734
0.260618
0.266773
0.22831
0.268264
0.216979
0.282778
0.00371124
0.0135062
0.0266136
0.0490815
0.0614151
0.0383726
0.0504456
0.0732942
0.0868812
0.0893685
0.124744
0.160778
0.162455
0.176824
0.139153
0.150825
0.086423
0.100648
0.00030767
0.000521544
0.00106251
0.0136617
0.0308748
-0.00747678
-0.0271508
-0.0169612
0.00972776
-0.0106608
0.00896048
0.0442202
0.0592277
0.075618
0.0606725
0.0576154
-0.00608453
-0.0339268
2.29438e-05
-0.000114269
-0.00053209
0.000528681
-0.00018143
-0.0057422
-0.0422916
-0.0377097
-0.0220971
-0.0471481
-0.0627623
-0.042748
-0.0223334
-0.0125823
-0.0114297
-0.0162516
-0.0533498
-0.131986
-1.15745e-05
-1.7216e-05
-3.55861e-05
0.000177765
-0.000855055
0.00174324
-0.0175717
-0.017215
-0.0124426
-0.0193517
-0.038414
-0.0455183
-0.0343223
-0.0382863
-0.0339149
-0.0382398
-0.063547
-0.145394
0.377442
0.651845
0.513759
0.361495
0.24667
0.229373
0.203991
0.196179
0.20686
0.22652
0.255854
0.261879
0.284746
0.305937
0.373244
0.409538
0.544204
0.55868
0.10547
0.515098
0.523723
0.48024
0.353346
0.313715
0.277694
0.239502
0.249175
0.256773
0.295758
0.28425
0.297563
0.298946
0.347375
0.376246
0.458035
0.514412
-0.00318459
0.135658
0.280034
0.301177
0.239635
0.223949
0.216295
0.18556
0.183705
0.167552
0.207509
0.207755
0.215364
0.207346
0.214928
0.23356
0.250949
0.271227
-0.0021105
0.0187143
0.100725
0.121127
0.121474
0.106247
0.13403
0.11767
0.106601
0.0691038
0.0824251
0.107306
0.115893
0.118194
0.100428
0.103525
0.0816222
0.0695621
-0.000102198
0.00302129
0.022215
0.0385384
0.0592243
0.0382602
0.0608201
0.0751574
0.0694033
0.0154754
0.0020557
0.0158968
0.0342672
0.037747
0.0212579
0.0153847
-0.0235318
-0.0646141
-9.46885e-06
0.000335559
0.00379545
0.00626542
0.0225215
-5.8356e-05
0.00547101
0.0240682
0.0373043
0.00283598
-0.0403491
-0.0374019
-0.0255778
-0.0224296
-0.0380935
-0.03867
-0.0625679
-0.129442
-3.54244e-06
2.63325e-05
0.00030165
0.000274324
0.00193475
-0.00218791
-0.00236973
0.00635996
0.0149078
0.00983449
-0.0222415
-0.0394467
-0.033204
-0.0374355
-0.0578456
-0.0560834
-0.0665449
-0.125664
0.469456
0.661089
0.538298
0.416033
0.32819
0.315583
0.268224
0.259278
0.251193
0.260638
0.270267
0.293718
0.304532
0.333765
0.371454
0.405395
0.472543
0.479567
0.134312
0.39511
0.458538
0.456328
0.412101
0.412591
0.355609
0.333969
0.319672
0.309827
0.318475
0.326938
0.32931
0.346376
0.380172
0.394514
0.448606
0.486647
0.0182022
0.112694
0.183747
0.232426
0.251729
0.269819
0.278262
0.265546
0.253249
0.232191
0.237498
0.231167
0.234631
0.233048
0.251967
0.259932
0.273313
0.295024
0.00049133
0.0183646
0.0523927
0.0771916
0.0882548
0.105958
0.138339
0.144893
0.139555
0.126068
0.120964
0.106646
0.110512
0.105185
0.102704
0.118539
0.113015
0.111474
0.000159493
0.00125427
0.00855199
0.0130402
0.0255531
0.0112618
0.0360363
0.0489566
0.0301421
0.0250292
0.00816252
-0.00477546
-0.00228767
-0.00733819
-0.0201344
-0.017875
-0.00887196
-0.0213677
1.9842e-05
-0.00037482
-0.000524203
-0.00164168
0.00576306
-0.019991
-0.00605827
0.0229038
-0.00739536
0.00171342
-0.0279189
-0.049745
-0.0690568
-0.073285
-0.104478
-0.113573
-0.101654
-0.116436
7.27349e-06
-2.74163e-05
-0.000247899
-0.000866122
0.00073196
-0.00479565
-0.00593064
0.0128934
-0.00939015
-0.00221275
-0.0165014
-0.0347599
-0.0564618
-0.0646211
-0.0929529
-0.126589
-0.119276
-0.142762
0.106228
0.200832
0.312579
0.35035
0.304811
0.293869
0.264495
0.258435
0.251012
0.259206
0.271489
0.295464
0.319584
0.359784
0.419331
0.467815
0.568031
0.551334
0.00841784
0.224479
0.387977
0.432802
0.411632
0.389676
0.349733
0.336579
0.315776
0.300943
0.305664
0.307179
0.323059
0.349608
0.402307
0.440521
0.513272
0.559177
0.00152116
0.0437134
0.201186
0.263333
0.253883
0.253335
0.257848
0.264908
0.250054
0.227112
0.230136
0.214378
0.223899
0.224144
0.244089
0.275576
0.292485
0.325329
0.000313058
0.00600767
0.0303792
0.0749694
0.0901981
0.0947455
0.128646
0.151415
0.146927
0.131179
0.128497
0.109794
0.113958
0.102643
0.0832561
0.107049
0.095169
0.106754
-0.000143958
-7.60978e-06
0.00036766
0.0165312
0.0408001
0.0227615
0.0452358
0.0644397
0.0514753
0.040146
0.0340251
0.0196978
0.0197661
0.0102575
-0.0163624
-0.0314159
-0.0516465
-0.0573224
1.77301e-05
5.31673e-05
0.000154231
0.00337789
0.0189056
-0.0152903
-0.00771211
0.0186013
0.00248192
0.00958589
-4.28481e-05
-0.0226223
-0.0199865
-0.0288801
-0.0732705
-0.107066
-0.133912
-0.170607
7.70013e-06
-1.1026e-05
8.96316e-05
0.00062485
0.00302339
-0.00337091
-0.0123523
0.00413278
-0.00328129
0.00198848
-0.00275182
-0.020297
-0.0163358
-0.0245299
-0.0525753
-0.0960346
-0.12677
-0.179394
0.417579
0.521025
0.392343
0.308829
0.28445
0.266403
0.23757
0.227605
0.226177
0.242272
0.244651
0.294121
0.30724
0.370057
0.424754
0.487937
0.578706
0.608041
0.227629
0.260904
0.269275
0.273202
0.31774
0.341744
0.310408
0.28774
0.28157
0.285786
0.277683
0.314305
0.303941
0.362609
0.406297
0.459234
0.524205
0.600019
0.0305384
0.0987761
0.0398078
0.0667104
0.182527
0.228106
0.264069
0.238461
0.224952
0.220093
0.214517
0.233584
0.211345
0.234247
0.239497
0.278528
0.291723
0.330528
0.00232024
0.00485504
-0.0192479
-0.0263253
0.0158372
0.0922161
0.135526
0.141139
0.134368
0.122756
0.126307
0.13785
0.128574
0.119465
0.0851584
0.0994567
0.0838841
0.087814
2.55336e-05
-0.000540409
-0.00815048
-0.00845186
-0.0347807
0.00144341
0.0429248
0.0659122
0.0557504
0.037976
0.042991
0.04733
0.0571579
0.047976
0.00831335
-0.0243089
-0.0647457
-0.09277
1.58263e-05
-0.000240889
-0.00211517
-0.00545042
-0.0263668
-0.0174439
0.00966584
0.037392
0.0273478
0.00340399
0.00848506
-0.0240324
0.0075751
0.00662549
-0.049726
-0.089238
-0.128928
-0.195709
1.70515e-05
-2.75771e-05
-0.000436649
-0.00158096
-0.00693463
-0.00736808
-0.00714562
0.014547
0.00703632
-0.00339638
0.00236272
-0.0374407
-0.0124358
-0.00783075
-0.0332616
-0.0727731
-0.102373
-0.181301
0.516782
0.591585
0.412168
0.297154
0.205966
0.243299
0.167885
0.211633
0.175755
0.241204
0.243013
0.33159
0.362873
0.444573
0.549138
0.667044
0.867235
0.957809
0.237769
0.439255
0.379526
0.365019
0.272343
0.327237
0.231364
0.259153
0.202592
0.242015
0.24657
0.310651
0.343303
0.377958
0.467318
0.504853
0.588242
0.807759
0.038666
0.215711
0.240561
0.26919
0.214385
0.241107
0.222408
0.214014
0.167352
0.16171
0.162256
0.183765
0.215999
0.218976
0.264709
0.276547
0.224569
0.313144
0.00314862
0.0348849
0.0725955
0.111273
0.0735717
0.125527
0.165865
0.159221
0.135238
0.099746
0.0828355
0.0576637
0.0766143
0.0820243
0.0789165
0.100726
0.000927873
-0.0200904
0.00022699
0.00560137
0.00687694
0.048408
0.0113498
0.0241164
0.0951177
0.114509
0.0983585
0.0709541
0.0310429
-0.0124671
-0.0155671
-0.0204003
-0.0406101
-0.0340574
-0.110218
-0.212107
4.87776e-05
0.000484642
-5.61678e-05
0.00478591
0.00237084
-0.0269076
0.0354301
0.0674128
0.0676581
0.0508964
0.0218674
-0.0558515
-0.0789516
-0.081978
-0.121554
-0.11797
-0.158123
-0.295721
1.35384e-05
3.4076e-05
-8.03328e-05
-1.35009e-05
-0.00143451
-0.00958784
0.00171083
0.0208827
0.0334956
0.0321612
0.0183636
-0.0274958
-0.0541999
-0.0663946
-0.108193
-0.117654
-0.140214
-0.268531
0.72471
0.661833
0.483159
0.341145
0.230702
0.232845
0.181418
0.20967
0.161984
0.202439
0.200019
0.259612
0.288474
0.345643
0.392086
0.463137
0.512968
0.602958
0.223064
0.467404
0.467129
0.433517
0.299657
0.29951
0.237019
0.266258
0.195967
0.213346
0.205304
0.256507
0.287453
0.328624
0.381879
0.418302
0.454075
0.598239
0.0203218
0.150588
0.207066
0.247585
0.200668
0.204245
0.18883
0.208961
0.169509
0.15526
0.137712
0.155778
0.177936
0.195725
0.238379
0.249152
0.251528
0.295237
0.00199365
0.0309755
0.0550108
0.0803063
0.0899536
0.096867
0.124026
0.130319
0.123391
0.106274
0.0797721
0.0560764
0.069212
0.0608086
0.0920901
0.0868726
0.0889719
0.0585324
0.000245636
0.00426099
0.00307148
0.00994947
0.0275221
0.00298084
0.0468747
0.0404677
0.0600211
0.053852
0.0423214
0.00152403
-0.00288816
-0.0136456
-0.0193595
-0.0233293
-0.0347738
-0.0817456
7.41703e-05
0.000366763
-0.000405375
0.000389459
0.0121
-0.0142004
0.0146957
-0.0069881
0.018039
0.0180264
0.022082
-0.00880395
-0.0390086
-0.0442959
-0.0714096
-0.0984063
-0.102984
-0.155926
9.40838e-06
-7.08325e-05
-0.000628755
-0.00126535
0.000525223
-0.00334601
0.00291813
-0.00623787
0.00535146
0.00727944
0.0116114
0.00130621
-0.0357317
-0.0353683
-0.0710475
-0.101862
-0.10877
-0.155429
0.27463
0.479994
0.455564
0.383639
0.322375
0.277286
0.244725
0.236826
0.234071
0.253166
0.258036
0.296879
0.314355
0.343606
0.376249
0.393721
0.383217
0.403824
0.0458648
0.300804
0.410339
0.433801
0.439159
0.386675
0.335416
0.309268
0.29108
0.298413
0.284658
0.325851
0.331034
0.347678
0.398866
0.407571
0.470759
0.486909
-0.00919828
0.0417684
0.171323
0.286395
0.313971
0.304538
0.277786
0.253895
0.234484
0.232892
0.208233
0.227044
0.232955
0.221177
0.267272
0.246337
0.317522
0.343697
-0.000464724
0.00674708
0.0252364
0.103618
0.128836
0.134305
0.152849
0.153044
0.149389
0.143475
0.124765
0.111026
0.117553
0.0960239
0.10988
0.0847554
0.116304
0.14352
0.000182835
0.00145093
-0.000966258
0.018535
0.0331749
0.0273275
0.0623588
0.0797664
0.0815077
0.0813004
0.0694749
0.036059
0.0164495
0.0127547
-0.00661505
-0.0351949
-0.0517383
-0.0427918
2.23256e-05
-2.79229e-06
-0.000797453
0.00152903
0.00779885
0.000942767
0.00855467
0.0249051
0.0292458
0.0231984
0.0299558
-0.00313465
-0.0459884
-0.0337733
-0.0704991
-0.114317
-0.139337
-0.174368
-1.29467e-06
-2.78897e-05
-0.000201971
-0.000101866
0.000961088
0.000171718
-0.00415675
0.00610591
0.0108276
-0.000583177
0.00616551
-0.00808375
-0.0490641
-0.0406255
-0.0607618
-0.101484
-0.126406
-0.177667
0.643891
0.59878
0.437755
0.332086
0.275458
0.217875
0.194023
0.206156
0.218517
0.276343
0.297197
0.31964
0.330514
0.340718
0.32623
0.333889
0.261753
0.300894
0.263317
0.442242
0.428088
0.40758
0.365344
0.285582
0.239038
0.242017
0.240102
0.320199
0.34507
0.368254
0.393644
0.389752
0.388717
0.395266
0.405306
0.418406
0.0196039
0.118681
0.187671
0.231083
0.227332
0.212175
0.176757
0.173306
0.154838
0.200931
0.237122
0.258077
0.295577
0.286126
0.29784
0.284034
0.320721
0.336837
0.00344204
0.032645
0.0692587
0.0611848
0.060016
0.0991593
0.101207
0.0972223
0.0838179
0.0532573
0.0856152
0.113322
0.146525
0.150774
0.165279
0.151274
0.176302
0.192405
0.000299483
0.00350557
0.00841988
0.0161535
-9.98448e-05
0.0492995
0.0642911
0.0510488
0.0400088
-0.0412083
-0.0509269
-0.0141329
0.00774069
0.0212249
0.0340016
0.0264647
0.0346034
0.0428817
3.65408e-05
0.000359551
5.5321e-05
0.00083822
-0.0179853
0.0163937
0.0294925
0.0305233
0.020571
-0.0524084
-0.122293
-0.079943
-0.0817994
-0.0635591
-0.0511508
-0.0665404
-0.0715599
-0.0767805
2.04397e-05
3.44787e-05
-0.000214045
-0.000730274
-0.00584851
0.00317822
0.00402741
0.0138279
0.0146328
-0.0122472
-0.0815335
-0.0715389
-0.0737331
-0.0715448
-0.0528786
-0.0770766
-0.0946027
-0.117535
0.752076
0.644593
0.432811
0.304905
0.277149
0.261089
0.232383
0.231662
0.213567
0.247582
0.261306
0.277785
0.304029
0.331704
0.359567
0.397295
0.475899
0.453491
0.275338
0.446586
0.41316
0.382005
0.354797
0.355117
0.325835
0.314885
0.268294
0.289542
0.2947
0.291892
0.324202
0.343253
0.35803
0.392904
0.425542
0.493234
0.0374325
0.212294
0.274362
0.267969
0.25367
0.264105
0.27675
0.274776
0.231164
0.216849
0.219168
0.206078
0.217656
0.242291
0.230061
0.264864
0.244278
0.295799
0.00413551
0.0403812
0.0938092
0.0829354
0.0588344
0.102859
0.172847
0.182611
0.174639
0.13353
0.120425
0.119654
0.0984467
0.123624
0.106629
0.123482
0.0898049
0.0988124
0.000155601
0.00467871
0.0157538
0.0406484
-0.00045081
0.00532151
0.0640564
0.0731771
0.0977616
0.0466872
0.018807
0.0389815
0.0211108
0.0213282
0.0222321
0.0120808
-0.0230245
-0.0462458
3.34288e-06
0.000595208
0.00234876
0.0101801
-0.00801012
-0.0284822
0.005285
0.00418124
0.036856
0.00665924
-0.048449
-0.015379
-0.0198541
-0.0365811
-0.0178091
-0.047604
-0.0844266
-0.138709
2.12417e-05
7.48948e-05
0.000216444
0.00114256
-0.00210283
-0.00918828
-0.0056984
-0.00797502
0.00996739
0.00880006
-0.0402376
-0.0318975
-0.029021
-0.055813
-0.0334951
-0.0519482
-0.0896801
-0.151286
0.438902
0.407949
0.326114
0.221471
0.169302
0.176629
0.194445
0.217296
0.238825
0.259419
0.297275
0.301868
0.330101
0.350033
0.410824
0.456846
0.599716
0.589497
0.166703
0.325752
0.347515
0.311923
0.225074
0.210714
0.230527
0.250069
0.280485
0.297381
0.348649
0.343717
0.355941
0.360328
0.380017
0.418646
0.459637
0.57244
0.0276163
0.0513218
0.124752
0.173362
0.146252
0.142284
0.149965
0.165644
0.199931
0.203824
0.254565
0.265546
0.267207
0.273386
0.244374
0.279096
0.232266
0.305968
0.00372965
0.0127214
0.0228086
0.0573071
0.0538791
0.0370195
0.0535166
0.0694732
0.0833716
0.0905363
0.12066
0.157185
0.159929
0.172488
0.137865
0.142195
0.0744477
0.0896484
0.000311355
0.000417278
-0.00187773
0.0265136
0.023931
-0.0155269
-0.0158583
-0.0276864
0.00512257
-0.00690981
-0.000226125
0.036476
0.0532408
0.0681737
0.0532119
0.0409203
-0.0280192
-0.0599949
2.44106e-05
-0.000120658
-0.000785416
0.0051356
0.000352075
-0.0197141
-0.0266298
-0.0455866
-0.0277724
-0.0426166
-0.0688193
-0.0493989
-0.0306492
-0.0203968
-0.0157435
-0.0350692
-0.0778121
-0.162458
-1.14761e-05
-1.88966e-05
-4.5349e-05
0.000965013
0.000127851
-0.00416934
-0.0103085
-0.0219673
-0.0148831
-0.0171144
-0.0415326
-0.0483642
-0.0403827
-0.043982
-0.0357688
-0.0488455
-0.0773376
-0.169595
0.375802
0.649095
0.519408
0.360368
0.251775
0.233578
0.2073
0.205405
0.212972
0.2409
0.267612
0.281186
0.304547
0.333629
0.398774
0.446521
0.577849
0.589641
0.104538
0.511884
0.526971
0.480771
0.355318
0.316107
0.277746
0.247414
0.250127
0.267893
0.302218
0.297504
0.310984
0.319476
0.366328
0.405473
0.487771
0.549234
-0.0032455
0.132941
0.279942
0.303538
0.238047
0.223893
0.215674
0.189492
0.181931
0.171787
0.209409
0.211816
0.219578
0.215867
0.223203
0.242972
0.265289
0.289628
-0.00209745
0.0180823
0.0983492
0.127041
0.11579
0.106654
0.133247
0.116691
0.105545
0.0663266
0.0819938
0.105506
0.113003
0.116907
0.102142
0.0972156
0.0811574
0.0742345
-9.88197e-05
0.00292152
0.018188
0.0477124
0.0520441
0.038122
0.0620726
0.0711887
0.0706347
0.0102728
-0.000903739
0.0147467
0.0288092
0.0303618
0.0181333
0.00503087
-0.0355651
-0.0715947
-8.62035e-06
0.00031464
0.0032426
0.00746025
0.0184697
0.000264664
0.00851265
0.0194282
0.0409823
-0.00228527
-0.0452493
-0.032763
-0.0351417
-0.0323014
-0.034189
-0.0518092
-0.0802036
-0.146491
-3.3001e-06
2.27444e-05
0.00026507
0.000339382
0.00128204
-0.00204464
-0.00232403
0.00266657
0.0199793
0.00900464
-0.027595
-0.0343094
-0.0383016
-0.0471767
-0.0530805
-0.0633068
-0.0804867
-0.141781
0.472939
0.655595
0.541952
0.414005
0.331896
0.315884
0.270522
0.262394
0.253144
0.266822
0.273799
0.30546
0.311247
0.350396
0.386993
0.422822
0.508132
0.50778
0.137396
0.390279
0.46049
0.455104
0.414597
0.411166
0.356871
0.337369
0.31767
0.31633
0.317379
0.337671
0.329449
0.360661
0.387679
0.402829
0.478137
0.505988
0.01859
0.111858
0.18299
0.230939
0.252799
0.269622
0.278932
0.267971
0.249643
0.237481
0.233158
0.238103
0.230625
0.24128
0.255329
0.254369
0.289764
0.303915
0.000529815
0.0185075
0.0504209
0.0779602
0.0882874
0.10298
0.140407
0.145381
0.138773
0.127837
0.117875
0.107784
0.107713
0.104865
0.107966
0.105361
0.114868
0.114158
0.000164166
0.00133248
0.00666981
0.0163099
0.0242281
0.00791674
0.0389018
0.0475372
0.03056
0.0268442
0.00666628
-0.00691715
-0.00678408
-0.0104863
-0.0181409
-0.0197372
-0.0216218
-0.0287042
2.15283e-05
-0.000356845
-0.00124816
-0.00204616
0.00801364
-0.0246764
-0.00266819
0.0190115
-0.00377329
0.00175883
-0.0269807
-0.0541921
-0.0700061
-0.0828564
-0.100701
-0.106924
-0.113995
-0.133408
6.8437e-06
-2.68651e-05
-0.00031123
-0.000929044
0.000979805
-0.00543043
-0.00650763
0.0100105
-0.00690755
-0.00137862
-0.0160584
-0.0395652
-0.0562414
-0.072748
-0.0934181
-0.114894
-0.123577
-0.158198
0.107363
0.202428
0.309999
0.350928
0.303321
0.291949
0.268288
0.25265
0.254554
0.257961
0.268845
0.294824
0.31547
0.356959
0.414607
0.464178
0.56456
0.556539
0.00886146
0.226806
0.386473
0.432575
0.41111
0.385913
0.356574
0.328012
0.320823
0.301621
0.301112
0.310983
0.317623
0.348535
0.39813
0.434701
0.511591
0.553293
0.00153647
0.0455888
0.201784
0.262764
0.254627
0.251219
0.261781
0.258505
0.251599
0.229602
0.225869
0.219825
0.220102
0.225588
0.243516
0.268872
0.295897
0.322769
0.000306095
0.0069038
0.0321146
0.0721133
0.0954244
0.089859
0.129371
0.151047
0.14519
0.131603
0.126574
0.114255
0.114071
0.104716
0.0867467
0.101191
0.100358
0.108733
-0.000148297
0.000158661
0.000200788
0.0129755
0.0481624
0.0206413
0.0400185
0.0699969
0.046402
0.0384594
0.0346652
0.0229242
0.0201198
0.0132789
-0.0123587
-0.03031
-0.0478118
-0.0535315
1.61187e-05
7.26817e-05
0.000223501
0.00140803
0.0170047
0.000949934
-0.0173093
0.0227531
-0.00129376
0.00397148
0.00206049
-0.0223741
-0.0211913
-0.0233675
-0.0693748
-0.103264
-0.130912
-0.165965
7.01569e-06
-9.10839e-06
0.000106037
0.000466414
0.00252757
0.00114646
-0.0173916
0.00639882
-0.00145297
-0.00137672
-0.000754084
-0.0239187
-0.0165613
-0.0209494
-0.0510721
-0.091323
-0.123218
-0.174816
0.424227
0.513415
0.394388
0.306756
0.281155
0.269119
0.227424
0.229302
0.212754
0.240081
0.229228
0.284794
0.289273
0.35509
0.392926
0.471236
0.528283
0.589467
0.233212
0.254855
0.270097
0.273098
0.313592
0.348741
0.299155
0.294662
0.269057
0.288196
0.264168
0.309488
0.290877
0.351967
0.384306
0.446017
0.488343
0.570044
0.0311433
0.100588
0.0349838
0.0680779
0.181187
0.229167
0.260627
0.245753
0.218136
0.224899
0.208169
0.23247
0.206564
0.228075
0.235929
0.268471
0.283306
0.320699
0.00236152
0.00588458
-0.0270823
-0.0223843
0.0162208
0.0883496
0.139528
0.144425
0.135882
0.126519
0.127721
0.139447
0.127985
0.117419
0.0928522
0.0948566
0.0898773
0.093763
2.39911e-05
-0.000248125
-0.00816655
-0.00651961
-0.0309787
-0.0112233
0.0504038
0.0674722
0.0557438
0.0440007
0.0454623
0.051916
0.0601277
0.0514455
0.0143369
-0.0240374
-0.051817
-0.078932
1.51308e-05
-0.000182469
-0.00219844
-0.00509359
-0.0198998
-0.0240885
0.0135014
0.0361218
0.0271832
0.00988135
0.00791008
-0.0159405
0.00684875
0.0116952
-0.0380341
-0.0873531
-0.119362
-0.182026
1.67704e-05
-2.3682e-05
-0.000459421
-0.00147735
-0.00514998
-0.00868281
-0.00437279
0.0123984
0.00532714
0.00217326
0.000830336
-0.0286347
-0.0148385
-0.0053246
-0.0228631
-0.0720876
-0.0976997
-0.17163
0.515767
0.59085
0.408509
0.298222
0.197944
0.24533
0.157261
0.204437
0.164886
0.231351
0.221048
0.31531
0.328128
0.415242
0.485533
0.617949
0.750718
0.870524
0.237308
0.440044
0.376552
0.365637
0.266162
0.334736
0.221264
0.256563
0.197054
0.237053
0.230273
0.306776
0.316849
0.365976
0.426388
0.480843
0.523766
0.74547
0.0386846
0.217507
0.236888
0.272582
0.211558
0.242273
0.220712
0.2166
0.164014
0.163346
0.15433
0.185822
0.204366
0.218813
0.251592
0.268957
0.216973
0.304271
0.0031669
0.0352026
0.068092
0.116081
0.0704158
0.126775
0.170141
0.163516
0.135238
0.103636
0.0829303
0.058141
0.0758288
0.0877577
0.0821454
0.100536
0.0228394
0.00571475
0.00022898
0.00564008
0.0103161
0.0521979
0.00933064
0.0176342
0.0987644
0.13019
0.0849089
0.0772793
0.0374678
-0.0107198
-0.0130405
-0.0136887
-0.0330378
-0.0309125
-0.0824251
-0.172408
4.84322e-05
0.000478953
0.000359711
0.00552135
0.00422408
-0.0224194
0.0282572
0.0866324
0.0542081
0.050346
0.0334053
-0.0536071
-0.0800963
-0.0718308
-0.112971
-0.114328
-0.141052
-0.258503
1.28349e-05
3.4574e-05
-3.58437e-05
0.000131327
-0.000998103
-0.00751152
-0.00167219
0.0341916
0.0262026
0.033013
0.0242052
-0.0243357
-0.0556874
-0.0594726
-0.100843
-0.115862
-0.133269
-0.244427
0.715825
0.671203
0.471624
0.346995
0.223861
0.225152
0.179179
0.189445
0.152722
0.184186
0.171243
0.235722
0.240012
0.307966
0.31247
0.396413
0.388532
0.515224
0.21565
0.477599
0.458201
0.434108
0.30021
0.294353
0.243306
0.246665
0.19434
0.203877
0.181607
0.249424
0.252444
0.310616
0.322012
0.3809
0.38233
0.512185
0.0194749
0.153541
0.203868
0.248682
0.202481
0.205564
0.193856
0.201322
0.16881
0.155631
0.125782
0.157554
0.163303
0.195862
0.212483
0.235909
0.244868
0.267118
0.00193017
0.0304103
0.0573008
0.0758196
0.0930553
0.104468
0.123286
0.135449
0.124612
0.109063
0.0814458
0.058385
0.0670054
0.0695149
0.0959523
0.0871522
0.114469
0.0750009
0.000239857
0.00391337
0.00982017
-0.000686402
0.0264139
0.0179885
0.0356092
0.0594088
0.0546141
0.0557889
0.0491113
0.00819139
0.000453678
-0.00739938
-0.00541566
-0.0092245
-0.00538652
-0.0483284
7.04908e-05
0.000256114
0.00025895
-0.000511938
0.00848431
0.00381161
-0.00329895
0.0130878
0.00988492
0.0177543
0.0306287
-0.00641914
-0.031169
-0.0436675
-0.0552412
-0.0773123
-0.0739766
-0.130329
8.68016e-06
-8.98529e-05
-0.000582577
-0.00139212
0.000186241
0.00190839
-0.00280132
0.00414099
0.000127839
0.0073619
0.0181759
-0.000456006
-0.0243885
-0.0416179
-0.0590158
-0.0852353
-0.0848875
-0.135054
1.27841e-05
1.75515e-05
2.80822e-05
8.56925e-05
0.000211875
0.000368864
-0.00203716
-0.000604873
0.00402642
0.000658048
0.000849282
-0.0013592
-0.0138098
-0.0180932
-0.0239369
-0.0400166
-0.046895
-0.070831
-2.67794e-06
-2.79449e-05
-4.04078e-05
3.69436e-06
0.000157221
0.000289838
0.00011172
0.000196019
0.00061997
0.000453157
-0.000119801
-0.000381237
-0.00154073
-0.00334175
-0.00371698
-0.00841305
-0.00996821
-0.0173027
2.13591e-06
-2.072e-05
-3.57481e-05
-4.25101e-05
-7.43327e-06
6.09641e-05
0.000127076
0.000198722
0.000182671
0.000154447
5.85539e-05
-2.02579e-05
-6.63534e-05
-0.000203117
-0.000271865
-0.000738872
-0.000932016
-0.00185249
-4.66861e-06
-5.03597e-06
-1.03225e-05
-1.85922e-05
-2.27823e-05
-1.14229e-05
9.18708e-06
4.84707e-05
8.60129e-05
9.41847e-05
7.82875e-05
3.28903e-05
-8.67166e-06
-4.61943e-05
-9.3544e-05
-0.00013195
-0.000143048
-0.000168495
1.58691e-06
-2.36258e-06
-2.43539e-06
3.50494e-06
7.63177e-06
1.21943e-05
1.67496e-05
1.14684e-05
2.03109e-05
3.18001e-05
4.28481e-05
5.49223e-05
5.23374e-05
3.93755e-05
1.60479e-05
1.04533e-05
1.36236e-05
7.34918e-06
2.97275e-06
6.73115e-06
8.26027e-06
5.86808e-06
1.51706e-06
-7.7269e-07
2.14591e-07
5.62021e-06
1.29764e-05
3.32741e-05
5.05768e-05
6.80253e-05
7.6347e-05
7.23389e-05
7.74448e-05
9.23692e-05
9.84278e-05
0.000131709
1.93425e-06
8.92605e-07
-3.78765e-07
6.2525e-06
9.28675e-06
7.10213e-06
4.617e-06
2.91487e-06
6.54678e-07
-5.68436e-07
-7.76564e-07
3.63193e-06
9.01489e-06
1.89005e-05
3.12094e-05
2.88818e-05
3.15101e-05
3.32739e-05
-3.6124e-07
-2.82463e-06
-5.22887e-06
-6.62418e-06
-5.87277e-06
8.88925e-07
9.2475e-06
1.27867e-05
1.43918e-05
1.0732e-05
8.98759e-06
9.44507e-06
1.25551e-05
1.59794e-05
2.29952e-05
2.38992e-05
2.50344e-05
2.61383e-05
8.79799e-07
2.64336e-07
-2.96669e-07
2.01155e-06
3.05911e-06
3.61053e-06
7.29712e-06
7.44954e-06
1.69375e-05
2.33354e-05
1.94658e-05
1.38728e-06
-1.35388e-05
-1.38306e-05
-1.09308e-05
1.51002e-07
1.88172e-05
2.80842e-05
1.24569e-08
3.99982e-07
2.49965e-06
2.56492e-06
2.97751e-07
-1.80263e-06
6.31729e-07
-7.61126e-07
8.33727e-07
7.85824e-06
1.12125e-05
1.33404e-05
1.19102e-05
1.15188e-05
9.79138e-06
1.28533e-05
1.54258e-05
1.69667e-05
1.2104e-05
2.31263e-05
-4.24154e-05
-0.000174082
-0.000500113
0.000412045
-0.000443094
0.00322224
0.00552137
-0.00115665
-0.0229208
-0.0288872
-0.0316878
-0.026379
-0.0215414
-0.0287704
-0.0378411
-0.0580376
-1.65271e-05
-3.55333e-06
1.77287e-05
-2.60745e-06
-4.68988e-05
-1.68981e-05
-0.000109706
0.000216581
0.000552718
0.000105967
-0.00240814
-0.00428027
-0.00473068
-0.00453044
-0.00467136
-0.00722747
-0.0103822
-0.0176409
-5.87903e-06
1.26569e-05
3.86051e-05
3.4081e-05
1.12251e-05
-1.59733e-05
-6.24161e-05
-6.55126e-05
-3.32874e-05
2.13854e-05
-0.000102676
-0.000347684
-0.000409725
-0.000422963
-0.000562783
-0.00095143
-0.00141538
-0.00289917
2.63266e-06
3.62232e-06
2.32116e-06
4.02907e-06
2.42151e-05
2.23696e-05
2.67639e-05
1.68077e-05
2.02828e-06
8.74902e-06
3.59553e-05
3.82133e-05
4.49576e-05
3.42778e-05
-1.20184e-05
-5.72813e-05
-8.18473e-05
-0.000151853
3.89168e-07
-2.02998e-06
-2.1064e-06
-4.49076e-06
-7.27094e-06
5.38674e-06
1.49131e-05
1.66853e-05
1.27241e-05
6.29076e-06
1.01367e-05
-5.05797e-07
-6.68629e-06
9.13291e-06
4.05719e-05
4.8442e-05
5.05912e-05
6.39491e-05
1.54244e-06
-6.89798e-07
-3.03805e-07
1.00239e-06
6.77e-07
-2.84164e-06
2.91051e-06
1.83894e-05
3.03298e-05
2.40618e-05
1.30257e-05
8.90514e-06
6.03534e-06
-8.70675e-07
-1.02002e-05
-1.31704e-05
-1.0772e-05
1.43331e-05
2.34417e-07
-1.56355e-06
5.5259e-07
4.95756e-07
-2.76753e-06
-3.58042e-06
-6.89615e-06
-5.84606e-06
9.55674e-06
2.00066e-05
2.30789e-05
1.14413e-05
-1.69407e-07
-6.11762e-06
-6.03425e-06
-3.18972e-06
1.04275e-05
3.85155e-05
1.68203e-06
1.96023e-06
4.40223e-06
9.30457e-07
-3.4755e-06
-4.83888e-06
-9.00289e-07
2.37164e-06
4.30002e-06
1.15933e-05
8.82635e-06
-2.62007e-06
-1.12616e-05
-1.62095e-05
-1.59753e-05
-1.25732e-05
1.99831e-06
9.46485e-06
-1.67838e-06
-1.48425e-06
3.18432e-06
5.77199e-06
4.95246e-06
5.38915e-06
5.07554e-06
5.71687e-06
6.63629e-06
5.46549e-06
-2.49176e-06
-6.51483e-06
-5.5136e-06
-4.98052e-06
7.41079e-06
2.00004e-05
2.97238e-05
4.16348e-05
1.82289e-06
9.85029e-07
3.04157e-06
6.97647e-06
8.60122e-06
8.53598e-06
8.15565e-06
9.95402e-06
1.26499e-05