/*--------------------------------*- C++ -*----------------------------------*\
| =========                 |                                                 |
| \\      /  F ield         | OpenFOAM: The Open Source CFD Toolbox           |
|  \\    /   O peration     | Version:  3.0.1                                 |
|   \\  /    A nd           | Web:      www.OpenFOAM.org                      |
|    \\/     M anipulation  |                                                 |
\*---------------------------------------------------------------------------*/
FoamFile
{
    version     2.0;
    format      ascii;
    class       volScalarField;
    location    "0.1";
    object      k_mode_0;
}
// * * * * * * * * * * * * * * * * * * * * * * * * * * * * * * * * * * * * * //

dimensions      [0 0 0 0 0 0 0];

internalField   nonuniform List<scalar> 
244500
(
-48.7526
-51.8159
-40.1636
-29.1144
-23.2296
-19.7316
-17.3449
-15.5727
-14.1837
-13.0956
-12.1966
-11.4664
-10.8644
-10.3472
-9.92541
-9.58375
-9.39358
-8.94126
-15.3814
-33.6511
-36.2278
-34.6636
-31.1302
-27.6227
-24.7103
-22.3107
-20.3918
-18.834
-17.5603
-16.4714
-15.6048
-14.7867
-14.1722
-13.6017
-13.115
-12.8332
-1.69927
-10.5406
-18.1279
-22.3771
-23.1723
-22.6971
-21.5168
-20.0231
-18.6938
-17.49
-16.5086
-15.5599
-14.8531
-14.084
-13.5478
-12.9787
-12.4922
-12.199
-0.130212
-1.71957
-5.07377
-8.62564
-11.2525
-12.8206
-13.7642
-13.9238
-13.82
-13.487
-13.1506
-12.6376
-12.3049
-11.8099
-11.4924
-11.0536
-10.6956
-10.4905
-0.00791583
-0.213831
-0.812346
-1.99628
-3.52731
-4.84037
-6.10071
-6.97531
-7.66096
-7.97328
-8.30366
-8.38063
-8.4665
-8.42681
-8.39737
-8.26876
-8.10141
-8.06922
-0.000584224
-0.0221659
-0.100779
-0.287786
-0.702222
-1.16968
-1.82047
-2.39947
-3.03277
-3.40805
-3.87995
-4.17571
-4.4966
-4.7201
-4.94825
-5.06639
-5.10071
-5.24474
-0.000187627
-0.00231865
-0.011071
-0.0335401
-0.0913133
-0.187196
-0.353589
-0.547291
-0.827436
-1.02242
-1.2817
-1.49848
-1.71807
-1.94196
-2.15733
-2.36255
-2.4549
-2.66702
-49.0688
-52.138
-40.3876
-29.2243
-23.2862
-19.7576
-17.355
-15.5893
-14.1944
-13.1367
-12.243
-11.5523
-10.947
-10.4522
-10.0464
-9.71277
-9.56202
-9.13862
-15.4699
-33.8788
-36.3947
-34.7727
-31.1825
-27.6647
-24.7318
-22.3384
-20.3965
-18.8725
-17.5976
-16.5596
-15.6956
-14.8898
-14.3021
-13.7026
-13.2267
-12.9537
-1.70624
-10.6122
-18.1801
-22.405
-23.183
-22.7119
-21.5288
-20.0495
-18.7033
-17.5245
-16.5314
-15.6145
-14.9226
-14.1438
-13.6626
-13.0502
-12.5642
-12.2499
-0.131642
-1.74615
-5.1385
-8.6692
-11.2624
-12.8275
-13.7625
-13.9391
-13.838
-13.5255
-13.1765
-12.6643
-12.3492
-11.8224
-11.5577
-11.1158
-10.7432
-10.5137
-0.00800975
-0.219567
-0.837967
-2.03711
-3.54435
-4.84662
-6.08489
-6.94984
-7.6511
-7.99311
-8.32705
-8.39309
-8.47796
-8.42312
-8.39974
-8.28666
-8.12514
-8.08126
-0.0006233
-0.023148
-0.104806
-0.295984
-0.707677
-1.16558
-1.80923
-2.37093
-3.01117
-3.41732
-3.90138
-4.18221
-4.50394
-4.70841
-4.89284
-5.03722
-5.08904
-5.22922
-0.000166849
-0.00240289
-0.0115354
-0.0345502
-0.0944287
-0.182539
-0.350664
-0.534105
-0.813443
-1.01666
-1.2916
-1.50324
-1.72185
-1.94793
-2.11665
-2.31684
-2.42432
-2.64332
-49.022
-52.0801
-40.3477
-29.2142
-23.2923
-19.7835
-17.3736
-15.5774
-14.1854
-13.084
-12.2229
-11.5169
-10.9531
-10.4513
-10.0784
-9.73674
-9.57624
-9.19918
-15.5139
-33.8682
-36.4105
-34.8064
-31.211
-27.7049
-24.7725
-22.3337
-20.3902
-18.7878
-17.5582
-16.4984
-15.6848
-14.8808
-14.3343
-13.7314
-13.3042
-12.9646
-1.7114
-10.62
-18.2495
-22.4782
-23.2291
-22.7442
-21.5729
-20.0578
-18.7192
-17.4675
-16.4936
-15.5462
-14.8909
-14.1085
-13.6696
-13.0382
-12.6319
-12.2691
-0.133207
-1.74913
-5.15553
-8.70479
-11.302
-12.8238
-13.7811
-13.9384
-13.8449
-13.523
-13.1655
-12.6099
-12.3107
-11.7679
-11.5314
-11.0675
-10.7575
-10.5271
-0.00830394
-0.219678
-0.835291
-2.03802
-3.57934
-4.83175
-6.08481
-6.93337
-7.64417
-8.02397
-8.35293
-8.38441
-8.46056
-8.38084
-8.35092
-8.23718
-8.07916
-8.06887
-0.000602701
-0.0229192
-0.103761
-0.295169
-0.728087
-1.16738
-1.8145
-2.36846
-2.98702
-3.4465
-3.94331
-4.21494
-4.51707
-4.6949
-4.86304
-4.9899
-5.03149
-5.19408
-0.000166178
-0.00238777
-0.0114881
-0.0349337
-0.0997145
-0.187886
-0.355968
-0.542926
-0.800819
-1.03256
-1.31727
-1.53244
-1.74402
-1.94828
-2.1067
-2.28441
-2.37795
-2.59645
-49.0276
-52.324
-40.5253
-29.2409
-23.251
-19.7246
-17.3443
-15.5866
-14.1938
-13.1261
-12.2525
-11.5543
-10.9703
-10.4633
-10.0361
-9.6609
-9.40296
-9.02968
-15.4824
-34.0308
-36.5562
-34.8806
-31.1519
-27.5952
-24.6836
-22.3253
-20.3927
-18.8531
-17.614
-16.55
-15.731
-14.9208
-14.3303
-13.7076
-13.2537
-12.8589
-1.70899
-10.6305
-18.3278
-22.5611
-23.1866
-22.6627
-21.4385
-20.0114
-18.7
-17.5105
-16.5555
-15.6001
-14.9437
-14.1623
-13.6912
-13.054
-12.6555
-12.2503
-0.132753
-1.74198
-5.18044
-8.77777
-11.3057
-12.7972
-13.6743
-13.8861
-13.8156
-13.5317
-13.2071
-12.6683
-12.3593
-11.8282
-11.5646
-11.1038
-10.8101
-10.5465
-0.00791317
-0.218224
-0.843901
-2.08647
-3.58907
-4.85581
-6.04888
-6.89841
-7.6541
-8.01607
-8.36501
-8.43035
-8.4973
-8.42307
-8.39864
-8.27437
-8.13838
-8.11564
-0.000562089
-0.0231687
-0.106563
-0.306571
-0.732787
-1.18344
-1.80278
-2.31885
-2.98117
-3.40619
-3.89267
-4.18989
-4.51487
-4.69085
-4.8834
-5.02298
-5.0719
-5.26662
-0.00017609
-0.00242564
-0.0118305
-0.0360928
-0.0999036
-0.188737
-0.353064
-0.511988
-0.786649
-1.00929
-1.27466
-1.49123
-1.72349
-1.9274
-2.10789
-2.3135
-2.40932
-2.67007
-49.3298
-52.3901
-40.5541
-29.3359
-23.3426
-19.7776
-17.3395
-15.567
-14.1597
-13.086
-12.1882
-11.5022
-10.9135
-10.4416
-10.035
-9.70332
-9.46712
-9.09324
-15.4314
-33.9595
-36.529
-34.9109
-31.2883
-27.7178
-24.7286
-22.3245
-20.3566
-18.799
-17.5135
-16.4678
-15.6316
-14.8615
-14.2968
-13.7014
-13.2547
-12.9637
-1.68713
-10.5476
-18.2101
-22.5174
-23.2958
-22.8058
-21.5689
-20.0631
-18.6926
-17.4801
-16.4727
-15.5226
-14.8458
-14.0864
-13.6349
-13.0223
-12.6016
-12.2948
-0.129394
-1.7306
-5.12161
-8.69772
-11.3167
-12.9064
-13.8148
-13.9664
-13.8533
-13.5215
-13.1696
-12.6064
-12.288
-11.7507
-11.5015
-11.0673
-10.7479
-10.5417
-0.00772545
-0.215282
-0.834797
-2.02308
-3.55138
-4.88159
-6.13144
-6.96995
-7.66963
-8.02581
-8.36161
-8.39767
-8.45508
-8.37976
-8.34979
-8.24337
-8.09796
-8.08739
-0.000578093
-0.0227946
-0.104858
-0.295928
-0.711
-1.18439
-1.84797
-2.39035
-3.0153
-3.43697
-3.93615
-4.21032
-4.5207
-4.69684
-4.86724
-5.01311
-5.05823
-5.21893
-0.000191184
-0.0023896
-0.0114568
-0.0346075
-0.0967083
-0.188923
-0.366448
-0.544549
-0.811841
-1.02825
-1.31337
-1.52866
-1.74997
-1.9499
-2.10352
-2.30551
-2.40161
-2.61525
-49.3001
-52.2639
-40.4148
-29.2478
-23.252
-19.7139
-17.3148
-15.5699
-14.2025
-13.1388
-12.2653
-11.5658
-10.9737
-10.4974
-10.0935
-9.79697
-9.61896
-9.26818
-15.5348
-33.9842
-36.4732
-34.8627
-31.1944
-27.6186
-24.6718
-22.2946
-20.3913
-18.8483
-17.6101
-16.5555
-15.7073
-14.92
-14.3211
-13.7533
-13.2872
-13.0605
-1.72129
-10.7208
-18.304
-22.527
-23.23
-22.7204
-21.4819
-19.9987
-18.6857
-17.4844
-16.5243
-15.5925
-14.9189
-14.1574
-13.663
-13.0539
-12.581
-12.2784
-0.132443
-1.76768
-5.1912
-8.7102
-11.3029
-12.8465
-13.7274
-13.8877
-13.7996
-13.4878
-13.1552
-12.6271
-12.3303
-11.821
-11.5602
-11.1064
-10.7369
-10.4936
-0.00825169
-0.223205
-0.851974
-2.02654
-3.57859
-4.87907
-6.06827
-6.90997
-7.62212
-7.9775
-8.31669
-8.36508
-8.45548
-8.40506
-8.3962
-8.29558
-8.12055
-8.05713
-0.000616737
-0.0234695
-0.106614
-0.295761
-0.723296
-1.20067
-1.81321
-2.34713
-2.97552
-3.39519
-3.8947
-4.16396
-4.48255
-4.68397
-4.899
-5.04703
-5.09872
-5.22146
-0.000175839
-0.00243983
-0.0116963
-0.0347028
-0.097735
-0.190672
-0.354676
-0.524826
-0.790254
-0.997759
-1.29328
-1.50562
-1.71929
-1.92513
-2.11391
-2.32005
-2.4326
-2.64234
-48.496
-51.823
-40.2792
-29.2077
-23.2431
-19.7092
-17.2912
-15.5713
-14.1934
-13.1391
-12.2458
-11.5385
-10.9345
-10.4679
-10.0494
-9.76996
-9.57157
-9.24029
-15.1916
-33.7265
-36.3597
-34.7662
-31.1302
-27.5831
-24.6308
-22.3032
-20.3933
-18.8666
-17.6048
-16.5265
-15.6626
-14.899
-14.2869
-13.7603
-13.256
-13.0334
-1.67045
-10.4742
-18.1314
-22.4015
-23.1454
-22.666
-21.4634
-20.0132
-18.6972
-17.5113
-16.5431
-15.5914
-14.8859
-14.1386
-13.6267
-13.0621
-12.5745
-12.2789
-0.129683
-1.71699
-5.08684
-8.65611
-11.2448
-12.8301
-13.768
-13.9236
-13.8312
-13.5135
-13.176
-12.6593
-12.3292
-11.807
-11.5269
-11.0869
-10.729
-10.498
-0.00785338
-0.21281
-0.816809
-2.03052
-3.53136
-4.84784
-6.12683
-6.97189
-7.6761
-8.0045
-8.32533
-8.40272
-8.47957
-8.41493
-8.38486
-8.26412
-8.08899
-8.03889
-0.000575859
-0.0222365
-0.102583
-0.29609
-0.708946
-1.15409
-1.84025
-2.37913
-3.00588
-3.40588
-3.86389
-4.163
-4.51624
-4.69868
-4.9089
-5.01882
-5.05696
-5.18864
-0.000178464
-0.00230495
-0.0112226
-0.0340966
-0.0937634
-0.176361
-0.358155
-0.534405
-0.808732
-1.01955
-1.27101
-1.48182
-1.7289
-1.93053
-2.12513
-2.31008
-2.40082
-2.60317
-49.0441
-52.1868
-40.3865
-29.2273
-23.3008
-19.7647
-17.37
-15.5957
-14.2238
-13.1243
-12.253
-11.5152
-10.9423
-10.4446
-10.0641
-9.73454
-9.61815
-9.1676
-15.5019
-33.9764
-36.4563
-34.835
-31.2382
-27.6941
-24.7687
-22.3632
-20.457
-18.8654
-17.6182
-16.5003
-15.6597
-14.856
-14.2746
-13.7108
-13.2888
-13.0046
-1.71071
-10.6093
-18.2452
-22.5151
-23.2888
-22.7983
-21.5889
-20.0801
-18.771
-17.5402
-16.5768
-15.5924
-14.8851
-14.1129
-13.5963
-13.0209
-12.5693
-12.2735
-0.130951
-1.74258
-5.15606
-8.73416
-11.3681
-12.9386
-13.8391
-13.9709
-13.8773
-13.5588
-13.2312
-12.7045
-12.3451
-11.8171
-11.4997
-11.0601
-10.6985
-10.4862
-0.00792318
-0.218478
-0.839035
-2.03732
-3.58549
-4.91304
-6.13802
-6.9575
-7.64877
-8.00441
-8.36403
-8.45943
-8.51555
-8.44539
-8.39313
-8.25423
-8.05929
-8.02874
-0.000574203
-0.0230356
-0.105132
-0.296593
-0.722909
-1.20979
-1.85193
-2.37505
-2.96924
-3.38199
-3.88542
-4.22081
-4.56154
-4.74592
-4.9371
-5.03531
-5.05358
-5.19052
-0.000169866
-0.00236174
-0.0116651
-0.0353422
-0.100174
-0.195895
-0.367861
-0.541081
-0.790558
-0.990198
-1.26778
-1.50767
-1.77085
-1.97803
-2.15965
-2.33882
-2.40725
-2.611
-48.9342
-52.1417
-40.3941
-29.1946
-23.2903
-19.7371
-17.3705
-15.5357
-14.1805
-13.0759
-12.231
-11.4705
-10.908
-10.3321
-9.88961
-9.42505
-9.13238
-8.56269
-15.4236
-33.8556
-36.437
-34.8032
-31.2187
-27.6536
-24.7735
-22.298
-20.3952
-18.8107
-17.5835
-16.4826
-15.6807
-14.8338
-14.2435
-13.611
-13.1462
-12.6413
-1.70342
-10.5685
-18.2639
-22.4714
-23.2369
-22.7338
-21.5817
-20.0731
-18.7421
-17.5059
-16.5331
-15.561
-14.9032
-14.1278
-13.642
-13.05
-12.6535
-12.2869
-0.129934
-1.73115
-5.16847
-8.68528
-11.2889
-12.8134
-13.8065
-14.0036
-13.9144
-13.5695
-13.2117
-12.661
-12.3245
-11.827
-11.5566
-11.129
-10.8547
-10.6804
-0.0079822
-0.217808
-0.847231
-2.03718
-3.56464
-4.81068
-6.06298
-6.99686
-7.73797
-8.07087
-8.39602
-8.44601
-8.47236
-8.42931
-8.41375
-8.30901
-8.19654
-8.27275
-0.00065636
-0.0229597
-0.10673
-0.296182
-0.715896
-1.16559
-1.76229
-2.38435
-3.06082
-3.46163
-3.93806
-4.25822
-4.51141
-4.70855
-4.9469
-5.0686
-5.12785
-5.38878
-0.000170832
-0.00237892
-0.0117245
-0.0347358
-0.0958551
-0.185317
-0.333725
-0.527622
-0.835535
-1.04604
-1.31392
-1.55514
-1.74836
-1.93204
-2.16043
-2.34983
-2.4419
-2.73997
-48.7495
-51.8546
-40.2131
-29.0861
-23.1599
-19.6499
-17.2799
-15.5277
-14.1791
-13.0976
-12.2632
-11.5007
-10.9723
-10.4107
-10.0544
-9.64686
-9.52102
-8.90999
-15.2998
-33.767
-36.3554
-34.7203
-31.0689
-27.5275
-24.6205
-22.2417
-20.3651
-18.8101
-17.6094
-16.4731
-15.7085
-14.8452
-14.3135
-13.7058
-13.2914
-12.8577
-1.68682
-10.5803
-18.2555
-22.4422
-23.1396
-22.6364
-21.4458
-19.964
-18.6635
-17.4614
-16.5395
-15.5455
-14.912
-14.1096
-13.6357
-13.0639
-12.6292
-12.3131
-0.130267
-1.73743
-5.16064
-8.72938
-11.3184
-12.8374
-13.7594
-13.8949
-13.7984
-13.4697
-13.1634
-12.6457
-12.327
-11.8136
-11.5034
-11.0917
-10.7571
-10.5953
-0.00803714
-0.218844
-0.843757
-2.06174
-3.59589
-4.86357
-6.10494
-6.94082
-7.64278
-7.95775
-8.30769
-8.40748
-8.46567
-8.4238
-8.37666
-8.24129
-8.09035
-8.11584
-0.000612422
-0.0232157
-0.10677
-0.302656
-0.728557
-1.17937
-1.82706
-2.36968
-3.01036
-3.40021
-3.84713
-4.2069
-4.49937
-4.71496
-4.91534
-5.01364
-5.04368
-5.22084
-0.000164783
-0.00244462
-0.0121597
-0.0365268
-0.100161
-0.189654
-0.363221
-0.540517
-0.816855
-1.026
-1.25774
-1.51409
-1.73371
-1.94857
-2.16023
-2.31887
-2.3955
-2.61632
-48.7514
-51.8151
-40.1696
-29.113
-23.2365
-19.7362
-17.3521
-15.5821
-14.2036
-13.106
-12.23
-11.4856
-10.9154
-10.3827
-10.013
-9.65449
-9.5499
-9.07977
-15.3801
-33.6497
-36.232
-34.6635
-31.1337
-27.623
-24.7142
-22.3142
-20.408
-18.8333
-17.5891
-16.4759
-15.64
-14.803
-14.2275
-13.6389
-13.1971
-12.9278
-1.69913
-10.5386
-18.13
-22.3773
-23.1717
-22.6962
-21.5195
-20.018
-18.7028
-17.4833
-16.5224
-15.5575
-14.8661
-14.0882
-13.5657
-12.9898
-12.5014
-12.2185
-0.130203
-1.7192
-5.074
-8.62859
-11.249
-12.8172
-13.7684
-13.9166
-13.8164
-13.4825
-13.1459
-12.6344
-12.3052
-11.809
-11.4803
-11.0517
-10.667
-10.4637
-0.00791562
-0.213742
-0.810421
-2.00137
-3.52283
-4.83379
-6.11146
-6.96453
-7.65558
-7.97409
-8.29315
-8.37293
-8.45735
-8.42118
-8.38282
-8.25555
-8.05953
-8.02482
-0.000584014
-0.022153
-0.100563
-0.286962
-0.697376
-1.16766
-1.82907
-2.39357
-3.02538
-3.41113
-3.87373
-4.16899
-4.48636
-4.71247
-4.93485
-5.04759
-5.06434
-5.19031
-0.000186979
-0.00232108
-0.0110557
-0.0333795
-0.0902598
-0.184623
-0.356891
-0.547978
-0.822534
-1.02316
-1.27997
-1.49483
-1.71214
-1.9347
-2.15192
-2.35177
-2.4302
-2.62186
-49.0639
-52.1414
-40.394
-29.2236
-23.2929
-19.7632
-17.3601
-15.6026
-14.2083
-13.1521
-12.2742
-11.5741
-10.9983
-10.4912
-10.1304
-9.78324
-9.71234
-9.26497
-15.4642
-33.8802
-36.3997
-34.7732
-31.1869
-27.6655
-24.7316
-22.3495
-20.4022
-18.8791
-17.6252
-16.5614
-15.7395
-14.9028
-14.3601
-13.7387
-13.313
-13.035
-1.70553
-10.6079
-18.1846
-22.4064
-23.1833
-22.7121
-21.5271
-20.0523
-18.704
-17.5208
-16.5485
-15.6042
-14.9471
-14.1415
-13.6799
-13.0631
-12.5825
-12.2686
-0.13159
-1.7447
-5.14099
-8.67379
-11.2576
-12.8289
-13.7631
-13.9338
-13.8346
-13.5174
-13.1791
-12.6538
-12.3516
-11.8176
-11.5504
-11.1114
-10.7267
-10.4934
-0.00800731
-0.21929
-0.83507
-2.04743
-3.53663
-4.84609
-6.09309
-6.93638
-7.65168
-7.98617
-8.31845
-8.38739
-8.46999
-8.41544
-8.38592
-8.26996
-8.09513
-8.0464
-0.000623123
-0.0231106
-0.104564
-0.299317
-0.698983
-1.16504
-1.82197
-2.36294
-3.00758
-3.41632
-3.88954
-4.17905
-4.49307
-4.70382
-4.87927
-5.0193
-5.05651
-5.19486
-0.000167515
-0.0024008
-0.0115319
-0.0348319
-0.092818
-0.182632
-0.358258
-0.530419
-0.810081
-1.01796
-1.28658
-1.49961
-1.71717
-1.9411
-2.1156
-2.30517
-2.40074
-2.61585
-49.0168
-52.0815
-40.3549
-29.2123
-23.3004
-19.787
-17.3811
-15.586
-14.2012
-13.0981
-12.248
-11.5423
-10.9933
-10.4938
-10.1487
-9.80991
-9.71832
-9.31154
-15.5087
-33.868
-36.4154
-34.8063
-31.2165
-27.7041
-24.7766
-22.3381
-20.401
-18.7928
-17.5774
-16.5114
-15.7101
-14.9064
-14.3745
-13.7718
-13.3794
-13.0384
-1.71077
-10.6157
-18.2527
-22.4796
-23.2292
-22.7439
-21.5756
-20.0554
-18.7238
-17.4654
-16.5015
-15.5499
-14.8968
-14.1212
-13.6758
-13.0521
-12.647
-12.2793
-0.133171
-1.74791
-5.15631
-8.71025
-11.2961
-12.823
-13.7861
-13.9327
-13.8406
-13.5197
-13.1612
-12.6104
-12.3027
-11.7724
-11.5231
-11.0587
-10.7455
-10.505
-0.0083055
-0.21939
-0.833763
-2.04728
-3.57099
-4.82811
-6.09483
-6.92563
-7.63796
-8.02278
-8.34433
-8.38081
-8.45191
-8.37422
-8.34246
-8.21629
-8.05387
-8.03751
-0.00060188
-0.0228838
-0.103582
-0.300181
-0.721817
-1.16166
-1.82419
-2.36662
-2.97933
-3.44767
-3.93784
-4.20716
-4.51059
-4.68799
-4.85923
-4.96805
-5.00306
-5.16139
-0.000165648
-0.00238244
-0.0114822
-0.0356555
-0.0989624
-0.186355
-0.358021
-0.544187
-0.795496
-1.03167
-1.31929
-1.52591
-1.74064
-1.94168
-2.1061
-2.2755
-2.35961
-2.57231
-49.0267
-52.321
-40.5325
-29.2395
-23.2565
-19.7307
-17.3456
-15.5988
-14.2005
-13.1411
-12.2668
-11.5775
-10.9964
-10.4963
-10.0827
-9.71288
-9.47893
-9.10225
-15.4818
-34.0268
-36.561
-34.8814
-31.1537
-27.5997
-24.6804
-22.3365
-20.394
-18.8631
-17.622
-16.5657
-15.7465
-14.9406
-14.3625
-13.7393
-13.301
-12.9157
-1.70895
-10.6269
-18.3285
-22.5633
-23.1853
-22.6633
-21.4374
-20.0157
-18.6989
-17.5147
-16.5557
-15.6064
-14.9484
-14.1679
-13.7026
-13.0633
-12.6674
-12.2672
-0.132765
-1.74126
-5.17764
-8.78416
-11.2998
-12.7963
-13.6768
-13.8831
-13.8128
-13.5324
-13.2041
-12.6655
-12.3575
-11.8253
-11.5627
-11.0975
-10.8022
-10.5381
-0.00791583
-0.21812
-0.841504
-2.09654
-3.58352
-4.85004
-6.05724
-6.89064
-7.6503
-8.0186
-8.35882
-8.42377
-8.49272
-8.41783
-8.39269
-8.26072
-8.12269
-8.09667
-0.000563133
-0.0231591
-0.106357
-0.310089
-0.733009
-1.17303
-1.8143
-2.31334
-2.97681
-3.40894
-3.88931
-4.18394
-4.50822
-4.68582
-4.87958
-5.00808
-5.05304
-5.24432
-0.000176161
-0.00242375
-0.011823
-0.0366858
-0.100646
-0.184523
-0.358394
-0.508533
-0.784611
-1.01045
-1.27342
-1.48841
-1.71857
-1.92369
-2.10628
-2.30489
-2.39836
-2.6519
-49.3284
-52.3885
-40.558
-29.3354
-23.3466
-19.7808
-17.3425
-15.574
-14.1647
-13.0973
-12.1974
-11.5174
-10.9286
-10.4636
-10.0532
-9.73391
-9.48996
-9.1199
-15.4304
-33.9576
-36.531
-34.9111
-31.29
-27.7194
-24.7292
-22.3303
-20.3575
-18.8078
-17.5184
-16.4785
-15.6415
-14.8783
-14.3093
-13.7262
-13.2755
-12.9911
-1.68705
-10.5459
-18.2099
-22.5189
-23.2946
-22.8057
-21.5686
-20.0659
-18.6913
-17.4836
-16.4741
-15.5261
-14.8484
-14.0939
-13.6397
-13.031
-12.6123
-12.3081
-0.1294
-1.73021
-5.12011
-8.70167
-11.3124
-12.9067
-13.814
-13.9656
-13.8524
-13.5195
-13.169
-12.6053
-12.2853
-11.7502
-11.5021
-11.0627
-10.7481
-10.5445
-0.00772741
-0.215212
-0.831729
-2.02969
-3.54587
-4.88185
-6.13204
-6.96699
-7.6704
-8.02186
-8.35917
-8.39692
-8.45082
-8.37424
-8.34698
-8.23501
-8.08959
-8.08165
-0.000578493
-0.0227795
-0.104405
-0.296774
-0.707748
-1.18534
-1.84998
-2.38658
-3.018
-3.43298
-3.93233
-4.2137
-4.5133
-4.68965
-4.87011
-5.00223
-5.04507
-5.20623
-0.000191303
-0.00238698
-0.0114267
-0.0346496
-0.0962212
-0.189171
-0.366702
-0.54144
-0.815204
-1.02792
-1.30924
-1.53243
-1.74601
-1.94286
-2.10722
-2.29909
-2.39072
-2.60325
-49.3031
-52.2602
-40.4167
-29.2468
-23.2543
-19.7145
-17.3165
-15.5724
-14.2039
-13.1433
-12.2677
-11.5747
-10.9783
-10.51
-10.1044
-9.80952
-9.64253
-9.28983
-15.5374
-33.981
-36.4741
-34.8617
-31.1959
-27.6179
-24.6727
-22.2974
-20.3896
-18.8532
-17.609
-16.5635
-15.707
-14.931
-14.3262
-13.7594
-13.3075
-13.0761
-1.7216
-10.7207
-18.3036
-22.5254
-23.2308
-22.7202
-21.4822
-20.001
-18.6827
-17.4889
-16.5208
-15.5977
-14.9158
-14.1635
-13.6649
-13.05
-12.5926
-12.2869
-0.13247
-1.76788
-5.19046
-8.70984
-11.3033
-12.844
-13.7285
-13.8883
-13.7991
-13.4898
-13.1526
-12.6281
-12.3282
-11.8206
-11.564
-11.0968
-10.7373
-10.4974
-0.00825439
-0.223278
-0.850261
-2.02806
-3.57829
-4.87662
-6.06994
-6.90943
-7.62189
-7.97982
-8.31544
-8.36359
-8.4526
-8.40237
-8.39764
-8.29501
-8.10991
-8.05206
-0.000617917
-0.023486
-0.105962
-0.294997
-0.72493
-1.19746
-1.81556
-2.34424
-2.97763
-3.39615
-3.89521
-4.16024
-4.48305
-4.67649
-4.90154
-5.05261
-5.08969
-5.20856
-0.000175554
-0.00244103
-0.0116401
-0.0345844
-0.0978151
-0.190192
-0.354671
-0.521858
-0.791836
-0.99918
-1.29328
-1.50168
-1.72022
-1.91886
-2.11311
-2.32929
-2.4297
-2.63079
-48.4985
-51.8232
-40.2763
-29.2092
-23.2406
-19.7094
-17.2934
-15.5669
-14.1962
-13.138
-12.243
-11.5386
-10.9301
-10.4663
-10.0439
-9.76824
-9.56648
-9.24584
-15.1934
-33.7275
-36.3577
-34.7662
-31.1285
-27.5824
-24.6352
-22.2968
-20.3975
-18.8672
-17.6003
-16.5306
-15.657
-14.8991
-14.2819
-13.7575
-13.253
-13.0289
-1.67062
-10.4764
-18.1308
-22.4008
-23.1456
-22.6643
-21.4665
-20.0088
-18.6983
-17.514
-16.5388
-15.5962
-14.8824
-14.1403
-13.6253
-13.0576
-12.5769
-12.2769
-0.129688
-1.71809
-5.08729
-8.6532
-11.2498
-12.8246
-13.7692
-13.9242
-13.8299
-13.5149
-13.1741
-12.6623
-12.3296
-11.8088
-11.5295
-11.082
-10.7333
-10.5
-0.00785028
-0.213032
-0.816866
-2.02663
-3.53952
-4.84314
-6.12291
-6.97852
-7.67001
-8.00472
-8.32657
-8.40467
-8.47982
-8.41754
-8.38799
-8.26442
-8.09196
-8.04241
-0.000574548
-0.0222661
-0.102671
-0.294195
-0.709182
-1.16567
-1.83206
-2.38452
-3.00049
-3.4024
-3.86692
-4.16244
-4.51533
-4.70302
-4.91243
-5.02115
-5.05881
-5.19287
-0.000177891
-0.00230773
-0.0112379
-0.0339377
-0.0937528
-0.179827
-0.353849
-0.537054
-0.809341
-1.01722
-1.27346
-1.47894
-1.72877
-1.93313
-2.12679
-2.3134
-2.40297
-2.60699
-49.0511
-52.1782
-40.3892
-29.225
-23.2978
-19.7682
-17.3602
-15.5984
-14.2118
-13.1234
-12.2397
-11.5089
-10.927
-10.4352
-10.0369
-9.72605
-9.57738
-9.16095
-15.5077
-33.9696
-36.4574
-34.8349
-31.234
-27.7017
-24.7571
-22.371
-20.4453
-18.8683
-17.6065
-16.4977
-15.6478
-14.8506
-14.2537
-13.7056
-13.2575
-12.9842
-1.71135
-10.611
-18.2401
-22.5167
-23.2874
-22.7993
-21.5854
-20.0878
-18.7643
-17.545
-16.5709
-15.5923
-14.8799
-14.1105
-13.5905
-13.0158
-12.5608
-12.2664
-0.130996
-1.74362
-5.14749
-8.73882
-11.3683
-12.9342
-13.8433
-13.9742
-13.8785
-13.5626
-13.2313
-12.7058
-12.3437
-11.8165
-11.5044
-11.0567
-10.7023
-10.4911
-0.00792251
-0.21878
-0.838592
-2.04
-3.58922
-4.89927
-6.14634
-6.95903
-7.64792
-8.01062
-8.36529
-8.46299
-8.5173
-8.44777
-8.3976
-8.25395
-8.0687
-8.03972
-0.000573773
-0.0230974
-0.104994
-0.296979
-0.730035
-1.20093
-1.85655
-2.37431
-2.96805
-3.3889
-3.88446
-4.22684
-4.56143
-4.74793
-4.94786
-5.03625
-5.05979
-5.20038
-0.000169642
-0.0023662
-0.0116358
-0.0354478
-0.101993
-0.19401
-0.370372
-0.539444
-0.788432
-0.996198
-1.26588
-1.51466
-1.77006
-1.97793
-2.16853
-2.33958
-2.41065
-2.61794
-48.9354
-52.1373
-40.3919
-29.1956
-23.2828
-19.7414
-17.3598
-15.5312
-14.1707
-13.0694
-12.2109
-11.4608
-10.8771
-10.3121
-9.8353
-9.39083
-9.03815
-8.50197
-15.4253
-33.8533
-36.4344
-34.8036
-31.2121
-27.6636
-24.762
-22.2987
-20.3894
-18.8079
-17.5678
-16.4843
-15.6546
-14.8298
-14.2068
-13.5962
-13.0925
-12.5956
-1.70371
-10.5703
-18.2582
-22.4747
-23.2336
-22.7351
-21.5794
-20.078
-18.7381
-17.5089
-16.5241
-15.5663
-14.8899
-14.1321
-13.6282
-13.0461
-12.6459
-12.2822
-0.129975
-1.73166
-5.16125
-8.69141
-11.2849
-12.813
-13.8114
-14.0089
-13.9141
-13.5746
-13.2109
-12.6614
-12.3217
-11.8344
-11.5565
-11.1286
-10.872
-10.7032
-0.00798592
-0.217912
-0.84782
-2.04352
-3.56306
-4.80005
-6.06894
-7.01245
-7.72316
-8.07937
-8.4017
-8.44622
-8.4736
-8.43547
-8.41882
-8.30885
-8.21966
-8.30684
-0.000656096
-0.02297
-0.106843
-0.296938
-0.718643
-1.16506
-1.75847
-2.40335
-3.04497
-3.46394
-3.95071
-4.25744
-4.50959
-4.71833
-4.95212
-5.06769
-5.1404
-5.41994
-0.000170274
-0.00238121
-0.011743
-0.034866
-0.0964488
-0.185966
-0.330774
-0.540965
-0.826857
-1.04671
-1.32252
-1.55667
-1.74551
-1.93907
-2.16667
-2.34796
-2.44477
-2.75882
-48.7409
-51.862
-40.2034
-29.0918
-23.1539
-19.6443
-17.2774
-15.5121
-14.1704
-13.0849
-12.2364
-11.4852
-10.9298
-10.3827
-9.98641
-9.5952
-9.40962
-8.83892
-15.293
-33.7752
-36.3475
-34.7214
-31.0692
-27.5243
-24.6247
-22.2271
-20.3621
-18.8058
-17.5849
-16.4737
-15.6764
-14.8329
-14.2646
-13.6778
-13.2294
-12.789
-1.68609
-10.5823
-18.2517
-22.4444
-23.1407
-22.6379
-21.4492
-19.9594
-18.6609
-17.4657
-16.5247
-15.5516
-14.8985
-14.1095
-13.6154
-13.0543
-12.6244
-12.2923
-0.130222
-1.73669
-5.16137
-8.72739
-11.3198
-12.8455
-13.7578
-13.9
-13.7983
-13.4748
-13.1635
-12.6472
-12.3255
-11.8189
-11.5077
-11.0916
-10.7805
-10.6111
-0.00803417
-0.218476
-0.848217
-2.05463
-3.59376
-4.87792
-6.09418
-6.95857
-7.63605
-7.96127
-8.3136
-8.41149
-8.46872
-8.42955
-8.38714
-8.2518
-8.11663
-8.14528
-0.000609346
-0.0230988
-0.107228
-0.301702
-0.725282
-1.19505
-1.81004
-2.38805
-3.00328
-3.39882
-3.85797
-4.20682
-4.50363
-4.71914
-4.92702
-5.0292
-5.06745
-5.24391
-0.000163999
-0.00242457
-0.0121941
-0.0364074
-0.09957
-0.193862
-0.358097
-0.549278
-0.812816
-1.02497
-1.26507
-1.51273
-1.74072
-1.94622
-2.16949
-2.33097
-2.41377
-2.63355
-0.000128411
-0.000325083
-0.00111421
-0.00308007
-0.0077671
-0.0170432
-0.0349672
-0.0601865
-0.107775
-0.148135
-0.204111
-0.264436
-0.325614
-0.403613
-0.481259
-0.580115
-0.633022
-0.752148
-0.000122755
-0.000226698
-0.000394673
-0.000591632
-0.00101252
-0.00164193
-0.00281523
-0.00476659
-0.0090764
-0.0132652
-0.019025
-0.0254232
-0.0324974
-0.043627
-0.0564537
-0.0738561
-0.086552
-0.113937
-0.000137353
-0.000211525
-0.000255207
-0.000293563
-0.000367461
-0.000465978
-0.000595008
-0.000812548
-0.00116998
-0.00157616
-0.00199326
-0.00247617
-0.00299819
-0.00396538
-0.0052212
-0.00668482
-0.00803823
-0.0117368
-0.000113437
-0.000134628
-0.000167341
-0.000230694
-0.000295192
-0.000333265
-0.000349902
-0.000392652
-0.000471923
-0.000548373
-0.000598667
-0.000659479
-0.000726826
-0.000822936
-0.000965061
-0.00109977
-0.00121614
-0.00156205
-0.000111309
-0.000132503
-0.000144652
-0.000160893
-0.00018375
-0.000218258
-0.000254824
-0.000284113
-0.00031423
-0.000370781
-0.000400986
-0.000410184
-0.000419779
-0.000437748
-0.0004731
-0.000523244
-0.000568588
-0.00062654
-0.000104402
-0.000118704
-0.000130567
-0.000141061
-0.000157175
-0.000182094
-0.000203136
-0.000222354
-0.000227525
-0.000241914
-0.0002568
-0.000290306
-0.000319471
-0.000336934
-0.000359342
-0.00038344
-0.000406788
-0.000463381
-0.000106737
-0.000117147
-0.000126294
-0.000143153
-0.000155276
-0.000158762
-0.00016517
-0.000178091
-0.000190135
-0.000203615
-0.000210575
-0.000222681
-0.000241681
-0.000263128
-0.000283789
-0.000310457
-0.000333657
-0.000366776
-0.000103477
-0.000111673
-0.000119517
-0.0001357
-0.000144141
-0.000152965
-0.000166696
-0.000183346
-0.000189524
-0.000182286
-0.000182966
-0.000189809
-0.000203422
-0.000214299
-0.000225688
-0.000240169
-0.000250665
-0.00026091
-0.000102801
-0.000114142
-0.000121337
-0.000132264
-0.000145304
-0.000155203
-0.00016132
-0.000163663
-0.000170723
-0.000179522
-0.000191529
-0.000211392
-0.000223537
-0.000227308
-0.000222801
-0.000223708
-0.000235564
-0.000241982
-0.000100859
-0.000110606
-0.000122153
-0.000130252
-0.000134246
-0.00013806
-0.000145836
-0.000158111
-0.000172623
-0.000181128
-0.000183425
-0.000188452
-0.000196384
-0.00020214
-0.000207557
-0.000211132
-0.000215545
-0.000224019
-0.000150989
-0.000385562
-0.0012
-0.00311514
-0.00796985
-0.0163505
-0.0334566
-0.0587025
-0.103394
-0.14442
-0.205958
-0.265734
-0.32423
-0.408225
-0.468377
-0.553652
-0.609385
-0.736291
-0.00013996
-0.00021473
-0.000337756
-0.000544859
-0.000944769
-0.00151838
-0.00265316
-0.00445543
-0.00798217
-0.0118976
-0.0183023
-0.0254004
-0.031866
-0.0444147
-0.0543315
-0.0684225
-0.0796707
-0.106864
-0.00011914
-0.000175768
-0.000235988
-0.000321024
-0.000412097
-0.000508308
-0.000673481
-0.000925793
-0.00124318
-0.00152424
-0.00200158
-0.00253411
-0.00295468
-0.00390894
-0.00494831
-0.00631187
-0.00761389
-0.0110543
-0.000114679
-0.000142712
-0.000165465
-0.000195753
-0.000243493
-0.00028162
-0.00033412
-0.000398574
-0.000479877
-0.000540325
-0.000587681
-0.000632455
-0.000670011
-0.000756845
-0.000931037
-0.00114442
-0.00130289
-0.00168563
-0.000109455
-0.000125499
-0.000136121
-0.000163665
-0.000207631
-0.000248375
-0.000266393
-0.000279421
-0.00029544
-0.000301145
-0.000312177
-0.000351047
-0.000405946
-0.000451184
-0.000516982
-0.000572149
-0.000602415
-0.000675911
-0.000105568
-0.00011968
-0.000130256
-0.000144773
-0.000162471
-0.000178803
-0.000194039
-0.000219723
-0.000254835
-0.000271034
-0.000275939
-0.000293334
-0.000306229
-0.000321505
-0.000350349
-0.000365952
-0.00038467
-0.000434932
-0.000106113
-0.000123663
-0.000133242
-0.000142436
-0.000151438
-0.000166343
-0.000178527
-0.000188903
-0.000201773
-0.000208549
-0.000216315
-0.000225246
-0.00024861
-0.000269088
-0.000280418
-0.000287397
-0.000285253
-0.000308861
-0.00010556
-0.000116868
-0.000122719
-0.00012564
-0.000134497
-0.000142318
-0.000158456
-0.000174931
-0.000182336
-0.000187626
-0.000192064
-0.00020658
-0.000221452
-0.000234492
-0.000240136
-0.000243558
-0.000244053
-0.00024698
-0.000104403
-0.000118716
-0.000127909
-0.000135919
-0.000144133
-0.000151348
-0.000156963
-0.000167277
-0.000177004
-0.00018601
-0.000188472
-0.00019056
-0.00019503
-0.000204654
-0.000212991
-0.000222953
-0.000236502
-0.000258493
-0.000102807
-0.000112822
-0.000120911
-0.000130981
-0.000140028
-0.000145521
-0.000149507
-0.000155382
-0.000160697
-0.000168564
-0.000182607
-0.000196983
-0.00021255
-0.00022392
-0.000221487
-0.00022155
-0.00022947
-0.000240532
-0.000149548
-0.000369037
-0.00119215
-0.00330003
-0.00888182
-0.0172357
-0.0349818
-0.0603635
-0.100986
-0.148396
-0.211525
-0.275874
-0.336913
-0.411234
-0.472476
-0.549038
-0.594005
-0.709334
-0.00012411
-0.000183658
-0.00031618
-0.000538659
-0.00106467
-0.00169395
-0.00285575
-0.00467834
-0.00777901
-0.0122817
-0.0187398
-0.0264486
-0.0352526
-0.0461678
-0.0560523
-0.0699573
-0.078357
-0.102092
-0.000112257
-0.000166062
-0.000227729
-0.00029009
-0.000381158
-0.000518429
-0.00067449
-0.000812868
-0.0010419
-0.00142105
-0.00201208
-0.00269044
-0.00339073
-0.00419229
-0.00526473
-0.00655963
-0.00757338
-0.010501
-0.000115163
-0.000147761
-0.0001772
-0.000195839
-0.000235779
-0.000287314
-0.000402503
-0.000487833
-0.000530652
-0.000570074
-0.000640516
-0.000714784
-0.000757645
-0.000804631
-0.000903101
-0.00108027
-0.0012416
-0.0015585
-0.000110975
-0.000122368
-0.00013466
-0.000161387
-0.000203413
-0.000245771
-0.000267678
-0.000279679
-0.000311625
-0.000338831
-0.000363855
-0.000411447
-0.000436183
-0.000446571
-0.000470751
-0.000513242
-0.000543601
-0.000596234
-0.000106924
-0.000121897
-0.000129741
-0.000149681
-0.000174631
-0.000189822
-0.000199103
-0.000212611
-0.00022865
-0.000244991
-0.000255274
-0.00028568
-0.000314007
-0.000343239
-0.000373984
-0.00039546
-0.000387452
-0.000393888
-0.000102795
-0.0001159
-0.000130614
-0.000145494
-0.000150299
-0.000151969
-0.000160469
-0.000183465
-0.000216326
-0.000229448
-0.000225107
-0.00022516
-0.000235108
-0.000253366
-0.000272658
-0.000282007
-0.000297276
-0.000312213
-0.000103449
-0.000115855
-0.000123506
-0.000137518
-0.000148916
-0.000157424
-0.000164141