/*--------------------------------*- C++ -*----------------------------------*\
| =========                 |                                                 |
| \\      /  F ield         | OpenFOAM: The Open Source CFD Toolbox           |
|  \\    /   O peration     | Version:  3.0.1                                 |
|   \\  /    A nd           | Web:      www.OpenFOAM.org                      |
|    \\/     M anipulation  |                                                 |
\*---------------------------------------------------------------------------*/
FoamFile
{
    version     2.0;
    format      ascii;
    class       volScalarField;
    location    "0.1";
    object      k_mode_3;
}
// * * * * * * * * * * * * * * * * * * * * * * * * * * * * * * * * * * * * * //

dimensions      [0 0 0 0 0 0 0];

internalField   nonuniform List<scalar> 
244500
(
0.396141
0.451433
0.296137
0.183977
0.159458
0.173093
0.16407
0.163406
0.138061
0.14789
0.149309
0.191295
0.201792
0.255669
0.270639
0.359827
0.310574
0.503062
0.0519727
0.209329
0.208247
0.190365
0.175115
0.18938
0.174351
0.17071
0.130551
0.135128
0.127177
0.162686
0.169569
0.213162
0.239872
0.308455
0.307089
0.415947
0.0113927
0.0851927
0.147619
0.167052
0.145306
0.139825
0.117441
0.123452
0.0992196
0.0967872
0.0789457
0.0869009
0.097723
0.099222
0.139342
0.146372
0.1748
0.198109
0.00115576
0.00779599
0.0294016
0.0664834
0.0677735
0.0601735
0.0230139
0.0439161
0.0505022
0.0622952
0.041281
0.0148115
0.0348669
7.21584e-05
0.0298808
0.023425
0.0404032
0.0241101
8.78073e-05
0.00228268
0.0113676
0.0246627
0.0288457
0.0272708
-0.0162669
-0.0133322
0.0223766
0.0456985
0.0227876
-0.010726
-0.0209131
-0.0366588
-0.0464897
-0.0580542
-0.0608294
-0.0863134
-1.97928e-05
0.000282267
0.00204781
0.00633373
0.0044425
0.0203645
-0.00679828
-0.028317
0.00442269
0.0387148
0.0406607
-0.00558502
-0.0237819
-0.0395132
-0.0775694
-0.0996708
-0.103968
-0.137716
-3.15953e-05
2.57877e-05
0.000304076
0.00068103
0.000841228
0.00535516
0.00427534
-0.0131748
-0.00325232
0.0165949
0.0375289
0.0082285
-0.0202912
-0.0219648
-0.0491217
-0.0766146
-0.0846054
-0.118653
0.210077
0.381383
0.280721
0.208103
0.165438
0.144081
0.119993
0.133355
0.148148
0.162402
0.155868
0.174371
0.172505
0.212273
0.215668
0.294631
0.210519
0.356927
0.122829
0.165423
0.188141
0.201754
0.205855
0.174946
0.128448
0.133748
0.158071
0.174316
0.155904
0.163878
0.146769
0.183263
0.202085
0.286918
0.268954
0.357902
0.00836053
0.086366
0.137612
0.170776
0.171284
0.164395
0.12338
0.0963952
0.106399
0.131407
0.124131
0.120388
0.0981144
0.0943081
0.101135
0.146122
0.17224
0.210692
0.000699703
0.0138045
0.0416019
0.088091
0.118878
0.141208
0.104482
0.0639907
0.0509799
0.0600854
0.0807165
0.0743754
0.0649173
0.0273476
0.0121404
0.00448338
0.0498892
0.0576815
2.51975e-05
0.00161044
0.00997355
0.0193453
0.0378819
0.0705418
0.0753638
0.0566041
0.00550666
0.0137065
0.0264422
0.0315773
0.0227165
0.00612319
-0.0311861
-0.0683209
-0.0682083
-0.0672626
-6.63107e-05
0.000278734
0.0020762
0.00431257
0.00983463
0.0379098
0.0538285
0.0507398
-0.0146142
-0.0251367
-0.0216392
-0.0100868
-0.000653835
-0.00182368
-0.0329599
-0.103301
-0.112672
-0.135896
4.79303e-06
9.25009e-05
0.000384352
0.000829873
0.00271761
0.00709781
0.0192606
0.0283948
-0.00655854
-0.0198774
-0.018747
-0.0130813
-0.0062744
0.000406221
-0.00652443
-0.0675877
-0.0966276
-0.129395
0.228553
0.35352
0.32071
0.230716
0.135944
0.137312
0.121776
0.15386
0.141824
0.197892
0.175715
0.228728
0.190655
0.256492
0.201876
0.310782
0.187423
0.333715
0.0853928
0.355519
0.352177
0.30182
0.152089
0.142288
0.124075
0.158391
0.131762
0.203818
0.172206
0.23786
0.192804
0.253078
0.204115
0.313273
0.236658
0.393649
0.00242796
0.0802985
0.171038
0.187098
0.0845403
0.0752158
0.0688999
0.117948
0.0842212
0.132208
0.11338
0.167366
0.14864
0.176415
0.141561
0.192689
0.159313
0.239089
1.69991e-05
0.011926
0.0412096
0.0851012
0.031042
0.0124297
0.0211468
0.0692105
0.0612147
0.0476875
0.0431333
0.0762762
0.0960233
0.104104
0.0872983
0.0782657
0.0660856
0.0742133
-7.05959e-05
0.000971064
0.00502636
0.0622714
0.0344209
0.00223921
-0.0253756
0.0346841
0.031121
-0.00695634
-0.0155864
0.00391405
0.0353721
0.0541253
0.0481281
0.0208403
-0.0134268
-0.0488829
-2.27472e-06
3.85351e-05
0.00161805
0.0122048
0.0221627
0.00276517
-0.0536365
-0.0159473
0.0105849
-0.0284982
-0.0379207
-0.0393989
-0.0118899
0.00850974
0.0337107
-0.0174846
-0.0459173
-0.107851
-1.09848e-05
1.18894e-05
0.000361568
0.00164918
0.00438089
-0.00358214
-0.0288199
-0.0274881
0.00800767
-0.00930892
-0.0223194
-0.0409507
-0.0358469
-0.0233288
0.00750633
-0.00732952
-0.0367131
-0.0906167
0.0956074
0.224161
0.182369
0.137412
0.106329
0.141055
0.126591
0.148722
0.146558
0.177135
0.171052
0.211679
0.17812
0.244083
0.200614
0.326208
0.248718
0.365735
0.0400868
0.171331
0.158084
0.153912
0.136196
0.175351
0.141917
0.155509
0.148254
0.182264
0.172058
0.223374
0.173401
0.234495
0.173249
0.290179
0.206707
0.403426
-0.00194851
0.0355067
0.0971922
0.173176
0.162642
0.163973
0.124228
0.118835
0.101441
0.132492
0.121226
0.162025
0.131576
0.159215
0.110855
0.163003
0.0963491
0.206573
-0.000789233
0.0106933
0.0467436
0.114372
0.106946
0.0920301
0.0544548
0.0595077
0.0525996
0.071054
0.0724177
0.0854635
0.0874633
0.0793468
0.0601991
0.0598893
0.0142463
0.0469865
-0.000335971
0.000968944
0.00179105
0.0405564
0.0494169
0.0333629
0.00738237
0.037264
0.0204645
0.0520615
0.0522445
0.0409277
0.0414141
0.024338
0.00198995
-0.00694313
-0.0472161
-0.0722813
-2.11125e-05
0.000215207
0.00106705
0.00381243
0.0231537
0.0160511
-0.00443489
0.0162331
-0.00797862
0.00573372
0.0299696
-0.00158212
0.0140452
-0.0143885
-0.0334196
-0.0578095
-0.0739321
-0.146291
1.54857e-05
-3.68753e-07
9.03476e-06
0.000202548
0.00397763
0.00405531
-0.00384018
0.00127575
-0.0152393
-0.0178552
0.0152141
-0.00501944
0.0121572
-0.00766355
-0.0300819
-0.0572595
-0.0686498
-0.134919
-0.051708
0.120351
0.233283
0.248643
0.186896
0.158635
0.118068
0.151315
0.153562
0.184635
0.18627
0.210034
0.204535
0.241449
0.217691
0.295307
0.225992
0.367771
-0.0548239
0.0651932
0.1897
0.237228
0.257283
0.209154
0.121651
0.151044
0.155859
0.189749
0.194755
0.213905
0.213887
0.250387
0.219622
0.297127
0.22856
0.337116
-0.00957719
-0.0151102
0.0354945
0.168062
0.213948
0.208481
0.128048
0.101851
0.0977482
0.128875
0.138146
0.146507
0.147472
0.169843
0.154202
0.192913
0.153765
0.177912
-0.000237927
-0.00679122
-0.0340726
0.0761848
0.147897
0.17815
0.113545
0.0501864
0.0346331
0.043106
0.060549
0.0692618
0.0642624
0.0678167
0.0758609
0.0861761
0.0756754
0.0569482
2.70704e-05
-0.00171153
-0.0190581
-0.00970522
0.0527847
0.103851
0.105046
0.0386378
-0.0249929
-0.0151235
-0.00600994
0.0034095
-0.00217584
-0.0162577
-0.0123004
-0.00608534
0.000284702
-0.0341292
-1.25141e-05
-0.000156257
-0.00231142
-0.00196043
0.0112772
0.0303712
0.0848056
0.0481725
-0.0191025
-0.0299216
-0.0342784
-0.0241572
-0.0264449
-0.0587381
-0.0612365
-0.0658563
-0.0546523
-0.0872708
-3.82124e-06
6.09509e-07
-0.000135814
0.000188926
0.00387771
0.0085432
0.0355315
0.0375896
-0.00952866
-0.0228678
-0.0358009
-0.0279395
-0.0179458
-0.0468698
-0.0576817
-0.0760489
-0.0720897
-0.0916676
0.0400115
0.142161
0.131192
0.116822
0.123452
0.138563
0.119439
0.141105
0.140498
0.169242
0.175589
0.196309
0.192841
0.207206
0.191829
0.231963
0.157445
0.266405
0.0330098
0.000416839
0.0302103
0.0456811
0.0990027
0.140262
0.116441
0.14114
0.131778
0.165896
0.180356
0.201416
0.203513
0.217311
0.204149
0.250657
0.209302
0.278172
0.000407374
-0.00835358
-0.032372
-0.0139953
0.040902
0.0686179
0.0868817
0.0948903
0.0778419
0.0967132
0.110842
0.130593
0.145257
0.154572
0.148428
0.170665
0.150124
0.180459
-0.000646793
-0.00849529
-0.0286905
-0.031623
-0.0222832
0.00246966
0.0296966
0.0243221
0.0154737
0.0145541
0.0172109
0.0352837
0.0591366
0.0775681
0.0805191
0.0901689
0.07121
0.071556
-5.59971e-05
-0.00177276
-0.0191077
-0.0217307
-0.0436563
-0.0433898
0.00350343
-0.00183047
-0.012735
-0.0177854
-0.043053
-0.0368655
-0.0170169
-0.000463274
0.00972282
0.0181605
0.0119769
-0.0128297
-8.19438e-07
-0.000313625
-0.00357012
-0.00861451
-0.0180804
-0.0421947
-0.00241744
-0.00886224
-0.0176285
-0.0158279
-0.0610474
-0.0818435
-0.0725529
-0.0634739
-0.0486167
-0.0434563
-0.0366168
-0.0575941
-5.80377e-06
-3.44175e-05
-0.000428404
-0.00153243
-0.00386385
-0.013165
-7.54639e-05
-0.00275085
-0.010272
-0.00236701
-0.0274562
-0.0566755
-0.0648992
-0.0703955
-0.0637123
-0.0565094
-0.0526919
-0.0656259
0.440919
0.42037
0.303756
0.228331
0.185266
0.153273
0.132232
0.141144
0.157552
0.174298
0.184655
0.203196
0.207498
0.23284
0.249046
0.281515
0.273233
0.341261
0.0651269
0.157853
0.200162
0.22215
0.251352
0.204596
0.152193
0.147872
0.160207
0.178733
0.188014
0.204761
0.201267
0.215158
0.233485
0.262468
0.295431
0.34622
0.00024003
0.021925
0.0556721
0.166136
0.209774
0.199235
0.146852
0.11714
0.113851
0.129867
0.133528
0.145321
0.147468
0.138003
0.151966
0.148423
0.176553
0.201804
0.00118072
0.0127947
0.0209038
0.07319
0.106969
0.118283
0.0994987
0.0738555
0.0659052
0.0704331
0.0722225
0.0693461
0.0858518
0.0688907
0.0732396
0.058779
0.0515202
0.057307
0.000306534
0.00166744
-0.00825218
-0.00438877
0.0283573
0.0547332
0.0629315
0.0440702
0.0168763
0.0216766
0.0130987
0.00168431
0.0191519
0.0152775
0.00962095
0.00910618
-0.0292803
-0.0464256
5.47065e-05
-6.63265e-05
-0.00264096
-0.00840021
0.00354449
0.0238341
0.039702
0.0207005
-0.0125518
-0.013439
-0.0153388
-0.0397181
-0.0243593
-0.0262408
-0.0249115
-0.019007
-0.0484001
-0.0917908
1.83551e-05
-6.40767e-06
-0.000271727
-0.000767177
0.000842486
0.00398562
0.0141406
0.012612
-0.00325497
-0.00935302
-0.00363763
-0.0244358
-0.0296764
-0.0360066
-0.0356836
-0.0246196
-0.0446918
-0.0807373
0.12662
0.170654
0.17741
0.176494
0.176749
0.170775
0.131485
0.138697
0.1146
0.140326
0.129906
0.174641
0.161238
0.214159
0.195551
0.269612
0.192319
0.346631
0.16994
0.122356
0.126651
0.138904
0.171157
0.174582
0.129256
0.140464
0.100573
0.132155
0.110302
0.15751
0.144735
0.200273
0.189897
0.268252
0.236254
0.313219
0.0145833
0.00470486
-0.0129028
0.0147095
0.0674624
0.0919918
0.100309
0.105216
0.0670171
0.0889362
0.0628422
0.0893739
0.0915435
0.116693
0.124966
0.155452
0.174074
0.176092
0.000250841
-0.00185783
-0.0119661
-0.00887947
0.00803754
0.0528024
0.0713305
0.060714
0.046759
0.0378395
0.0206848
0.0174849
0.03764
0.0345404
0.0589409
0.0478664
0.0889463
0.0681257
-7.61262e-05
-0.00170879
-0.0105059
-0.025751
-0.0410951
0.004142
0.0514038
0.0512879
0.0375254
0.0275332
0.00295196
-0.00945726
-0.00548657
-0.0138618
-0.00109727
-0.011087
-0.000166671
-0.0195498
4.4944e-06
-0.000185652
-0.00221052
-0.0066598
-0.0272513
-0.0210012
0.0284767
0.0349432
0.0381401
0.0202762
0.000249609
-0.027376
-0.0249673
-0.0449992
-0.0363758
-0.0464984
-0.0541703
-0.0801781
1.06065e-05
-3.76349e-05
-0.000286471
-0.000926385
-0.00507298
-0.00764171
0.0101116
0.0147654
0.0241079
0.0122898
0.00111527
-0.0235408
-0.0212945
-0.0405066
-0.042121
-0.044325
-0.0540903
-0.0869592
0.0126251
0.127042
0.147156
0.125433
0.12103
0.151382
0.122502
0.164259
0.122289
0.162195
0.163167
0.243432
0.263943
0.362987
0.416757
0.563684
0.654095
0.878717
0.046043
0.04786
0.0786611
0.0929234
0.110891
0.164448
0.130488
0.181265
0.105859
0.132705
0.126779
0.189769
0.215152
0.289791
0.309544
0.40185
0.430047
0.654777
-0.00977734
0.0144948
0.0239636
0.0675918
0.082154
0.11092
0.110577
0.139738
0.0890514
0.0912684
0.0681393
0.0823906
0.109238
0.145605
0.163878
0.180153
0.174394
0.21171
-0.00187526
0.00179297
-0.002311
0.0388129
0.0163194
0.0556194
0.0628783
0.06749
0.0626389
0.0644907
0.0298832
-0.0071948
0.0100048
0.00911904
0.0407522
0.0268489
0.0102984
-0.0484076
-0.000131296
-9.98904e-05
-0.0166351
0.0274821
-0.0159275
0.00394166
0.031254
-0.00825829
0.0186964
0.0368051
0.00240849
-0.0355897
-0.0465437
-0.0701501
-0.0615949
-0.0603611
-0.0923155
-0.188854
-4.60739e-05
-0.000416739
-0.00342978
0.000286484
-0.00593953
-0.0188777
0.0369165
-0.0280282
-0.00858006
0.0220942
0.00678734
-0.0452778
-0.0490753
-0.0975717
-0.123171
-0.107288
-0.12966
-0.233552
-1.51739e-05
-3.46138e-05
-0.000203828
7.12837e-05
-0.000691891
-0.00850458
0.0136905
-0.0129039
-0.0141322
0.00284822
0.00776775
-0.0262714
-0.0349826
-0.0693866
-0.117061
-0.10811
-0.119576
-0.200529
0.200476
0.391723
0.39282
0.295217
0.221779
0.197115
0.174422
0.177818
0.13714
0.164335
0.131051
0.222328
0.179488
0.279504
0.239161
0.365594
0.250616
0.548236
0.0528501
0.257856
0.324325
0.2981
0.224685
0.20503
0.185865
0.197827
0.130114
0.152548
0.0983673
0.204291
0.14871
0.259193
0.23067
0.314574
0.267426
0.443345
-0.0103447
0.0212849
0.0554537
0.112588
0.105843
0.11443
0.110067
0.137688
0.0961289
0.109344
0.045534
0.109655
0.0740479
0.130404
0.151347
0.151944
0.174467
0.188803
-0.000456185
-0.00183591
-0.00667951
0.0485635
0.0259188
0.0292627
0.00747192
0.034252
0.0376614
0.058368
0.0120906
0.00748458
0.00579577
-0.00517943
0.0504465
0.029915
0.0642694
0.0296802
-1.0977e-05
-0.00089027
-0.0144285
0.0309751
0.00849348
0.0253797
-0.00499672
-0.0177936
-0.0112386
0.0170969
-0.00880228
-0.0438999
-0.0470318
-0.0639707
-0.0565904
-0.0498091
-0.0416729
-0.0797398
3.52065e-05
-0.000381517
-0.00289794
-0.00140948
-0.00533718
-0.00432701
0.000137694
-0.0180411
-0.0107584
0.00583634
0.0316855
-0.0448521
-0.0371945
-0.0640575
-0.0989782
-0.0999211
-0.0998678
-0.144027
-1.00955e-05
-7.34065e-05
-0.000390368
-0.000891429
-0.00308443
-0.00532006
-0.00311223
-0.015834
-0.00852868
-0.00724113
0.0273959
-0.0132302
-0.0228762
-0.021042
-0.0735888
-0.0773356
-0.0856658
-0.125743
0.400894
0.442299
0.29858
0.185445
0.158495
0.179771
0.157852
0.173262
0.128507
0.166601
0.138636
0.216099
0.197401
0.287093
0.274165
0.406495
0.34284
0.559926
0.0567835
0.201614
0.208307
0.191124
0.173399
0.197556
0.164549
0.185352
0.113331
0.159581
0.108839
0.18792
0.166347
0.234231
0.244161
0.337864
0.323815
0.441224
0.0120125
0.0846859
0.14139
0.168766
0.144778
0.141659
0.112384
0.13725
0.0822808
0.115755
0.06455
0.0974658
0.100545
0.102206
0.140283
0.155184
0.18515
0.201515
0.00121658
0.00805499
0.0209733
0.0708566
0.0669877
0.0603926
0.0238305
0.0482737
0.0480205
0.0652077
0.0408998
0.00878439
0.0356151
-0.00594997
0.0355391
0.0162189
0.0459595
0.0231649
9.17879e-05
0.0024225
0.00658538
0.0309674
0.028834
0.0241889
-0.0140559
-0.00925058
0.0222601
0.0392771
0.0268846
-0.0145863
-0.0218898
-0.041571
-0.0472463
-0.0660541
-0.060822
-0.0892645
-1.92797e-05
0.000304684
0.0015721
0.00530817
0.00812909
0.00982305
0.00165693
-0.0293298
0.0110825
0.0319584
0.0414854
-0.00894802
-0.0274658
-0.0420931
-0.0762051
-0.105769
-0.106451
-0.133412
-3.10257e-05
2.18511e-05
0.000253429
0.00058909
0.00159464
0.002025
0.00831598
-0.0145407
-0.00135233
0.0161239
0.0371486
0.00616057
-0.0224448
-0.0245377
-0.0515302
-0.0802595
-0.0873394
-0.110786
0.216911
0.369075
0.28592
0.205301
0.168592
0.148362
0.117172
0.143051
0.146741
0.173557
0.159669
0.191939
0.177549
0.246172
0.222095
0.35201
0.235496
0.442384
0.130025
0.154995
0.191098
0.201118
0.206036
0.17983
0.121313
0.146845
0.151016
0.186547
0.155263
0.179367
0.144698
0.217807
0.193876
0.338406
0.277856
0.400637
0.0092964
0.0854137
0.134207
0.170371
0.170779
0.165505
0.119435
0.105637
0.0992604
0.140125
0.119208
0.130372
0.0913247
0.114871
0.0934581
0.166128
0.176348
0.212304
0.000787801
0.0146866
0.0346153
0.0916866
0.116657
0.139815
0.105415
0.0648989
0.0502651
0.0639181
0.0725179
0.0787043
0.0606507
0.031117
0.00715317
0.00451897
0.0489971
0.0439652
3.43715e-05
0.00189073
0.00340558
0.0264528
0.0363086
0.0648026
0.0825291
0.050707
0.00568083
0.0175691
0.016645
0.0330432
0.0208262
0.00237081
-0.0332998
-0.0736065
-0.0705535
-0.0854416
-6.49865e-05
0.00032943
0.00146079
0.00411977
0.0115336
0.0240599
0.066279
0.0439555
-0.0141919
-0.0181204
-0.0329296
-0.0105843
0.00663717
-0.0125423
-0.0376588
-0.108492
-0.114678
-0.151916
4.41301e-06
9.63606e-05
0.000331328
0.000830013
0.00260291
0.00415356
0.0221139
0.0233114
-0.00613617
-0.0139093
-0.0256101
-0.0178431
-0.000408648
-0.00146571
-0.0171715
-0.0678354
-0.0979709
-0.138782
0.237144
0.342567
0.328124
0.223831
0.141834
0.139797
0.12153
0.163357
0.141212
0.210645
0.177875
0.244969
0.197976
0.278488
0.203821
0.341495
0.165156
0.380123
0.0930846
0.345609
0.358068
0.299391
0.153194
0.144121
0.118254
0.171959
0.124712
0.218874
0.169423
0.254345
0.196137
0.275411
0.209422
0.343246
0.244993
0.421557
0.00333738
0.0783218
0.172322
0.184801
0.0837181
0.0749729
0.064754
0.127091
0.0754406
0.144189
0.106751
0.177741
0.147888
0.185736
0.150831
0.196649
0.180791
0.259658
9.12939e-05
0.0123904
0.0374618
0.0891602
0.0267822
0.00828301
0.0229851
0.0690588
0.0582714
0.0534441
0.0346857
0.0793938
0.0957781
0.100246
0.0935786
0.0695113
0.0807795
0.0871712
-6.33605e-05
0.00126129
0.000229366
0.0729204
0.0315549
-0.00830064
-0.0162614
0.0297038
0.0246837
-0.000798124
-0.0226216
0.00379841
0.0320137
0.049863
0.0465985
0.0113022
-0.00930834
-0.0456209
-9.75051e-08
0.000110039
0.00115668
0.0163839
0.0224299
-0.0153602
-0.0391187
-0.0207322
0.00630594
-0.0237881
-0.0434263
-0.0401167
-0.0142398
0.00228271
0.0347464
-0.024591
-0.0482853
-0.11209
-1.04915e-05
2.1284e-05
0.000323506
0.00227508
0.00405849
-0.00783373
-0.0235171
-0.0302898
0.00619601
-0.00875426
-0.0243581
-0.0402494
-0.0386346
-0.0280346
0.0095031
-0.0105598
-0.037241
-0.0934948
0.0993514
0.219696
0.185501
0.135853
0.109208
0.145237
0.127067
0.156788
0.149931
0.188842
0.179455
0.228802
0.198002
0.270592
0.239317
0.37877
0.330611
0.460275
0.043164
0.167409
0.160368
0.153178
0.136533
0.178269
0.139455
0.163956
0.147165
0.192353
0.174637
0.236802
0.185329
0.249499
0.19919
0.316437
0.24812
0.460178
-0.00161388
0.0349188
0.0974849
0.171734
0.162139
0.163875
0.12289
0.122918
0.0980845
0.139042
0.118268
0.168844
0.134638
0.161924
0.1233
0.165759
0.103989
0.219967
-0.00077308
0.0109251
0.0454152
0.115105
0.106137
0.0881188
0.056205
0.0581507
0.0500963
0.0735557
0.0689865
0.0852219
0.0843017
0.0740073
0.06366
0.0510732
0.00272401
0.0369456
-0.000334955
0.00106472
0.00146808
0.0424639
0.0503028
0.0255327
0.0132642
0.0330151
0.015856
0.0560825
0.046522
0.0387685
0.0367601
0.0181895
-0.00183912
-0.0177013
-0.063008
-0.0928544
-2.04219e-05
0.000242049
0.000974173
0.00338635
0.0249868
0.00775271
0.00341573
0.0127549
-0.0117054
0.00874423
0.0260939
-0.00131038
0.00666271
-0.0201499
-0.0349699
-0.0704135
-0.0892315
-0.168691
1.58177e-05
3.80535e-06
-3.16296e-06
0.000129674
0.0043425
0.000411831
-0.000894666
-0.00236688
-0.0148722
-0.0160786
0.0123503
-0.00306571
0.00522381
-0.0107879
-0.0307601
-0.0648683
-0.077377
-0.151681
-0.0529183
0.12004
0.235606
0.248411
0.189769
0.160188
0.121595
0.155178
0.159258
0.192334
0.19596
0.221002
0.221127
0.260652
0.241741
0.321444
0.2697
0.402143
-0.0559106
0.0645086
0.19092
0.237419
0.258788
0.20894
0.124751
0.152285
0.159969
0.195056
0.20105
0.220982
0.22612
0.263684
0.23617
0.316357
0.259752
0.365067
-0.0096817
-0.0163149
0.0356887
0.168865
0.21346
0.207917
0.129715
0.100694
0.0995443
0.130086
0.140861
0.148805
0.151104
0.176831
0.160307
0.197893
0.168305
0.190463
-0.000239505
-0.00715567
-0.0344936
0.0781808
0.145993
0.177124
0.113654
0.0489117
0.0339817
0.0403502
0.0613014
0.0691886
0.0601583
0.0701313
0.0776547
0.0786017
0.0761285
0.0607577
2.80327e-05
-0.00180251
-0.018198
-0.00822166
0.0495591
0.103915
0.10377
0.0375012
-0.0237835
-0.0209613
-0.00644859
0.00307888
-0.0067529
-0.020755
-0.0118904
-0.0139124
-0.0128919
-0.0403763
-1.23975e-05
-0.000175976
-0.00206085
-0.0017372
0.00778567
0.0328263
0.0826309
0.0477561
-0.0153765
-0.0360552
-0.0373567
-0.0185858
-0.034304
-0.0682992
-0.054673
-0.071983
-0.0712516
-0.10373
-3.73315e-06
-9.95026e-07
-0.000119901
0.000206135
0.00333938
0.00929103
0.0339807
0.035794
-0.00395185
-0.0255887
-0.0392242
-0.0233574
-0.0218955
-0.0565886
-0.0520267
-0.0761058
-0.082981
-0.10713
0.0364568
0.142914
0.134663
0.114787
0.128277
0.137391
0.123731
0.145054
0.145436
0.178573
0.183632
0.20958
0.207575
0.227177
0.219633
0.258605
0.216462
0.309083
0.0297215
0.000695328
0.0324732
0.0452453
0.102576
0.137032
0.120107
0.142453
0.13385
0.173256
0.184154
0.211553
0.212126
0.231329
0.220996
0.264697
0.253041
0.304695
2.3645e-05
-0.0100562
-0.0316516
-0.0125519
0.0411174
0.0684397
0.0881827
0.0936848
0.077525
0.098815
0.111418
0.134988
0.145883
0.16203
0.155241
0.168072
0.17183
0.187461
-0.000666466
-0.00902777
-0.0299299
-0.0280209
-0.0253689
0.00430767
0.0295704
0.02192
0.0137207
0.0109749
0.0179864
0.0348097
0.0553773
0.0777482
0.0834848
0.0769187
0.0762799
0.069433
-5.60137e-05
-0.00190025
-0.0160724
-0.0173234
-0.0509956
-0.040061
0.0027615
-0.00600296
-0.010206
-0.0246667
-0.0439173
-0.0387844
-0.0238793
-0.00450523
0.0094985
0.0109042
0.000581229
-0.02207
-1.18722e-06
-0.00034083
-0.00282198
-0.0064623
-0.0207474
-0.0396175
-0.00344483
-0.0119005
-0.0119739
-0.0235067
-0.0611076
-0.0828676
-0.0788673
-0.0730215
-0.0464173
-0.0437796
-0.0523056
-0.0756779
-6.05884e-06
-3.88144e-05
-0.000364746
-0.0011982
-0.00394373
-0.0125144
-0.00227879
-0.00218778
-0.00707663
-0.0054743
-0.0271911
-0.0582389
-0.0680745
-0.0789278
-0.0635962
-0.0505578
-0.0607248
-0.0822961
0.432879
0.428234
0.306368
0.223574
0.193736
0.144359
0.140017
0.141457
0.160381
0.181221
0.190091
0.208972
0.218238
0.241969
0.266125
0.294529
0.300406
0.363734
0.057249
0.164182
0.203015
0.220134
0.259871
0.191465
0.161156
0.145709
0.159366
0.186302
0.190294
0.20808
0.208941
0.220413
0.244583
0.268865
0.315902
0.360887
-0.000677066
0.0195176
0.0621913
0.165414
0.211895
0.198752
0.148179
0.113351
0.112213
0.131349
0.135087
0.147645
0.148356
0.141921
0.155624
0.148233
0.186076
0.205905
0.00110872
0.0110474
0.0280038
0.0739296
0.103136
0.126169
0.0953388
0.069352
0.0643708
0.0649963
0.0736132
0.0732985
0.0815673
0.0708596
0.0742098
0.0546086
0.0538147
0.0551106
0.000301815
0.00124105
-0.00879099
-0.000338017
0.0161296
0.0725954
0.0585036
0.0342833
0.0262611
0.0106873
0.00966238
0.00538536
0.0163044
0.0132159
0.0096129
0.00845375
-0.0314772
-0.052184
5.42984e-05
-0.000137024
-0.00273351
-0.00726689
-0.00716546
0.0355068
0.0388719
0.0107135
0.00141678
-0.0236834
-0.0217095
-0.0339713
-0.0290092
-0.0276686
-0.0265437
-0.0183182
-0.0495139
-0.0976803
1.84733e-05
-1.15574e-05
-0.00027601
-0.00066212
-0.00162901
0.00605277
0.0139315
0.00713765
0.00301174
-0.0126223
-0.00786591
-0.0237542
-0.0325626
-0.0364914
-0.038878
-0.0223995
-0.0432253
-0.08438
0.119369
0.184704
0.172504
0.177904
0.180306
0.163988
0.140022
0.134492
0.121168
0.141216
0.133852
0.177104
0.168986
0.214918
0.211017
0.271616
0.212792
0.347112
0.162999
0.133692
0.12472
0.137944
0.176259
0.164015
0.140945
0.132082
0.106713
0.133626
0.110425
0.159372
0.150238
0.195884
0.204912
0.261425
0.254351
0.313293
0.013725
0.00416507
-0.00400441
0.0102871
0.0692975
0.0910698
0.10357
0.0978962
0.0692752
0.0902541
0.0624851
0.090784
0.0943336
0.111484
0.134311
0.14759
0.18407
0.173949
0.000167495
-0.0027587
0.00221363
-0.0178115
0.00770945
0.0588426
0.0669723
0.0567398
0.0444981
0.0368337
0.0226701
0.0200115
0.0382298
0.031505
0.063021
0.0421964
0.0937326
0.0636975
-8.23414e-05
-0.00198635
-0.00657917
-0.0318419
-0.0460472
0.0217226
0.0408383
0.0508005
0.0374594
0.0222691
0.00574923
-0.00720937
-0.0041552
-0.0129287
-0.00244284
-0.01415
0.00363984
-0.0237665
3.74098e-06
-0.000241422
-0.0017166
-0.00721441
-0.0356939
-0.0079604
0.0220125
0.0346801
0.0407508
0.0129566
0.002044
-0.0240468
-0.0270643
-0.036733
-0.0440402
-0.0473896
-0.0510236
-0.0786017
1.0649e-05
-4.04257e-05
-0.000219346
-0.00104259
-0.00679945
-0.00411862
0.00896859
0.0131514
0.0267699
0.00686676
0.00211483
-0.0222666
-0.0258119
-0.0318808
-0.0453123
-0.0474101
-0.053601
-0.0838422
0.00646939
0.140841
0.146308
0.120863
0.128203
0.138875
0.133259
0.159712
0.124135
0.161777
0.165626
0.236121
0.270739
0.349767
0.426298
0.547381
0.651063
0.850515
0.0388359
0.0587418
0.0815525
0.0912316
0.119172
0.146108
0.146033
0.172489
0.105606
0.136974
0.124841
0.181793
0.227151
0.269183
0.323771
0.384556
0.428714
0.635618
-0.010791
0.0130476
0.0365966
0.0629201
0.0868472
0.109207
0.114301
0.131599
0.0873772
0.09509
0.0666363
0.0770823
0.121453
0.127607
0.178276
0.171059
0.175568
0.199234
-0.00198045
0.0010386
0.0126098
0.0283434
0.0218743
0.0594615
0.0565472
0.0630697
0.0615034
0.0635788
0.0296187
-0.00714459
0.0187694
-0.00201908
0.0525165
0.027358
0.0136228
-0.0569406
-0.000141648
-0.000279452
-0.00726572
0.0152866
-0.0174799
0.0235817
0.0174417
-0.0158845
0.028952
0.0277201
0.00318482
-0.0325615
-0.0434122
-0.0707625
-0.05976
-0.0515088
-0.0847017
-0.194735
-4.63601e-05
-0.000445312
-0.00250489
-0.000328898
-0.0117478
-0.00250508
0.0265965
-0.0392726
0.00664045
0.0121163
0.00177876
-0.0374809
-0.0498797
-0.0982255
-0.120347
-0.0972348
-0.117763
-0.233349
-1.48638e-05
-3.40533e-05
-0.000133088
2.37423e-05
-0.0021798
-0.00400065
0.0135093
-0.0227237
-0.00632151
0.0030934
-0.00110994
-0.0216952
-0.0354221
-0.0700676
-0.120067
-0.100474
-0.106276
-0.194572
0.208674
0.393688
0.392898
0.291623
0.221361
0.196405
0.174189
0.177372
0.138121
0.158044
0.139148
0.210307
0.188219
0.267668
0.25699
0.357512
0.295085
0.54785
0.0578
0.258849
0.326856
0.29644
0.222293
0.203997
0.185943
0.196927
0.132721
0.142833
0.111458
0.187756
0.155011
0.248469
0.239794
0.301336
0.278279
0.439178
-0.0099986
0.0240399
0.0619793
0.105614
0.106347
0.112717
0.110212
0.134679
0.100858
0.0997553
0.0568627
0.10049
0.0748638
0.127267
0.155396
0.146335
0.166242
0.176276
-0.000485561
-0.000271686
0.000363423
0.0381154
0.0313153
0.0220027
0.00872245
0.0316047
0.0397052
0.0544501
0.0140107
0.0100084
0.00457102
-0.00377631
0.048159
0.0319894
0.0549625
0.0124692
-2.01977e-05
-0.000416557
-0.00805592
0.01961
0.0166849
0.0164061
-0.000352847
-0.0265804
-0.00774087
0.0176025
-0.00953092
-0.0419586
-0.0469428
-0.0650555
-0.058556
-0.0464249
-0.0464681
-0.094239
3.60126e-05
-0.000236753
-0.00230513
-0.00238511
-0.00194172
-0.00304617
0.00482975
-0.0261564
-0.0138275
0.0105211
0.0253789
-0.0426588
-0.0311691
-0.0679743
-0.104484
-0.0970182
-0.0924572
-0.155507
-9.04578e-06
-4.5272e-05
-0.000336548
-0.000878759
-0.00177102
-0.00439784
-0.0019543
-0.0153408
-0.012706
-0.00517946
0.0247453
-0.0143509
-0.0170769
-0.0227566
-0.0771668
-0.0767054
-0.074552
-0.129262
3.17115e-06
3.43549e-05
6.99387e-05
9.69475e-05
9.13807e-05
0.00077514
0.000660318
-0.00206618
-0.00294091
0.000628355
0.00973003
0.00595129
-0.00676066
-0.0131155
-0.0215076
-0.0313701
-0.0356102
-0.0560835
6.36782e-06
-8.10753e-06
7.65472e-06
4.90482e-05
5.83197e-05
8.18799e-05
4.24063e-05
-0.000110224
-0.000358281
-7.77537e-05
0.00135934
0.00198454
0.000293231
-0.0022528
-0.00451191
-0.00701191
-0.00795607
-0.0129133
-5.33142e-06
-1.36251e-05
-2.09624e-05
-9.37051e-06
3.03756e-05
7.06226e-05
3.71027e-05
-9.17488e-05
-0.000197945
-0.00019972
-4.88541e-05
0.000138556
0.000196756
4.97502e-05
-0.000321247
-0.000929523
-0.00111516
-0.00193878
-6.88092e-06
-5.99445e-06
3.11303e-06
-4.68618e-06
-3.24385e-05
-4.51918e-05
-5.73631e-05
-6.78004e-05
-0.00013013
-0.000170131
-0.000191268
-0.00015397
-0.000114348
-7.53138e-05
-3.02947e-05
-4.52355e-05
-6.68001e-05
-0.000167672
-3.74587e-07
2.31403e-06
1.03982e-05
1.38129e-05
6.53043e-06
-1.89548e-06
-8.71913e-06
-2.92094e-05
-5.02928e-05
-8.41468e-05
-9.52915e-05
-8.07502e-05
-6.52341e-05
-6.35007e-05
-5.67776e-05
-6.22513e-05
-8.65485e-05
-0.000132427
6.28933e-06
5.44746e-06
-1.62912e-06
-3.89269e-06
-5.1559e-06
-1.27978e-05
-1.86309e-05
-1.40735e-05
-1.23966e-05
-2.23901e-05
-3.03298e-05
-3.06965e-05
-2.25372e-05
-1.40536e-05
1.29651e-06
1.70815e-05
3.29944e-05
3.23532e-05
-1.67804e-06
2.77932e-07
-2.6339e-06
-1.0424e-05
-7.92521e-06
-5.40378e-06
-1.0933e-05
-1.6536e-05
-1.14802e-05
3.75118e-07
4.8417e-06
1.24903e-06
-5.90861e-06
-6.95547e-06
-2.95997e-06
-3.68601e-06
5.91714e-07
-3.84629e-06
2.86295e-06
2.07015e-06
2.67368e-06
2.37473e-06
2.33498e-06
-6.57336e-06
-1.88681e-05
-2.73162e-05
-2.85826e-05
-1.73627e-05
-9.42547e-06
-2.64524e-06
1.02279e-06
4.59743e-06
7.81297e-06
5.49305e-06
6.66848e-06
1.3718e-05
1.69232e-06
7.78281e-07
-1.58504e-06
-6.19744e-06
-1.08716e-05
-7.26041e-06
-6.49157e-07
7.31543e-06
1.36427e-05
1.11323e-05
-4.93841e-06
-2.21048e-05
-2.22834e-05
-1.7152e-05
-7.93403e-06
-1.12226e-05
-2.41093e-05
-3.03625e-05
3.43596e-07
-1.78542e-06
-4.72008e-06
-5.83713e-06
-4.98474e-06
-5.95897e-06
-8.96255e-06
-5.12915e-06
2.90724e-06
7.29309e-06
5.13236e-06
-1.65619e-06
-3.30586e-06
-3.95978e-06
-6.98458e-06
-1.15831e-05
-1.39516e-05
-1.64443e-06
3.10064e-05
3.77598e-05
4.44871e-05
3.5e-05
0.000185605
0.000641768
0.00213454
0.00393454
-0.0010944
-0.00593505
-0.00548065
-0.00509741
-0.00420029
0.000463991
-0.000151389
-0.0202252
-0.0378216
-0.0626619
3.27587e-06
7.82295e-06
1.08587e-06
-2.30506e-05
-4.13039e-06
3.70966e-05
0.000115092
0.00032947
3.63599e-06
-0.000837225
-0.000963026
-0.00107064
-0.00122105
-0.000664685
-0.000455153
-0.00409297
-0.00862657
-0.0162458
-7.76508e-06
-7.52662e-06
1.13236e-05
-2.14916e-05
-3.89615e-05
-4.58925e-05
-6.21709e-05
-0.000112388
-0.000194195
-0.000221119
-0.000168896
-0.000154667
-0.000122663
-0.000109934
-0.000126444
-0.00056819
-0.00119698
-0.00233818
5.97193e-07
-8.89146e-06
-7.43968e-06
-6.05353e-06
-1.55361e-05
-1.65487e-05
-1.35916e-05
-2.66056e-05
-7.07414e-05
-9.96092e-05
-0.000102809
-8.28076e-05
-3.99116e-05
-3.53363e-05
-3.69923e-05
-8.2697e-05
-0.000110385
-0.00018153
2.08697e-06
-4.44204e-06
-5.51916e-06
-7.54197e-08
-1.94576e-06
-6.68809e-07
-1.12671e-06
9.40405e-07
-1.31483e-05
-3.09683e-05
-4.41057e-05
-5.30816e-05
-4.58853e-05
-3.09814e-05
-2.55067e-05
-2.08883e-05
-1.3499e-05
-1.41848e-05
-1.67339e-06
-7.81542e-06
-1.59063e-05
-1.29675e-05
-7.07714e-06
-5.20855e-06
-5.37496e-07
1.67651e-05
2.20891e-05
2.00241e-05
1.26698e-05
5.38762e-06
-4.27812e-06
-1.49112e-05
-1.21963e-05
1.75488e-06
2.00604e-05
1.26606e-05
6.00232e-06
3.58966e-06
3.47291e-07
-1.43778e-06
-1.45575e-06
2.43006e-07
3.7112e-06
8.09059e-06
1.09563e-05
9.94119e-06
6.46857e-07
-8.38576e-06
-1.79532e-05