/*--------------------------------*- C++ -*----------------------------------*\
| =========                 |                                                 |
| \\      /  F ield         | OpenFOAM: The Open Source CFD Toolbox           |
|  \\    /   O peration     | Version:  3.0.1                                 |
|   \\  /    A nd           | Web:      www.OpenFOAM.org                      |
|    \\/     M anipulation  |                                                 |
\*---------------------------------------------------------------------------*/
FoamFile
{
    version     2.0;
    format      ascii;
    class       volScalarField;
    location    "0.1";
    object      k_mode_2;
}
// * * * * * * * * * * * * * * * * * * * * * * * * * * * * * * * * * * * * * //

dimensions      [0 0 0 0 0 0 0];

internalField   nonuniform List<scalar> 
244500
(
0.281487
0.406797
0.322354
0.25291
0.204981
0.186557
0.146329
0.129437
0.100811
0.112838
0.0803385
0.105538
0.0666933
0.0734126
0.0137883
-0.00905155
-0.218729
-0.169125
0.108164
0.198196
0.256073
0.25841
0.243815
0.238881
0.201366
0.182965
0.141717
0.163704
0.121679
0.165968
0.1299
0.129291
0.108152
0.0782533
0.0361569
0.0120744
0.00518635
0.0309699
0.080826
0.0931731
0.125158
0.146509
0.163754
0.166522
0.128858
0.1537
0.123542
0.155155
0.147861
0.120735
0.144488
0.0838839
0.123929
0.119825
-0.000560014
-0.00725435
-0.0098691
-0.010869
0.0223032
0.0669352
0.0883876
0.110589
0.104823
0.109844
0.117532
0.120527
0.145861
0.10522
0.142763
0.102938
0.126045
0.144403
-0.000286788
-0.00230378
-0.00101002
-0.0178527
-0.0237762
-0.00254739
0.0087197
0.0566926
0.0509757
0.0600228
0.0901685
0.0851718
0.102502
0.0925351
0.103363
0.0994917
0.112865
0.144003
-2.62083e-05
-0.000195401
-0.000603321
-0.00474942
-0.0151101
-0.0103431
-0.0117814
0.0309814
0.03435
0.0142996
0.0488826
0.0449439
0.0557026
0.054359
0.0570553
0.0642609
0.0867188
0.13123
2.46581e-05
7.68185e-06
-0.000209002
-0.000973793
-0.00269755
-0.00236791
-0.00762074
0.00833685
0.0199281
-0.00382619
0.0079333
0.0125341
0.0201117
0.0262889
0.0250986
0.028582
0.0466082
0.0924278
0.226081
0.255027
0.242063
0.248322
0.218989
0.202637
0.174507
0.164916
0.147475
0.126612
0.0878018
0.0587931
0.0265554
0.00841113
-0.0520802
-0.0923859
-0.245632
-0.281974
0.0590853
0.263519
0.305249
0.324578
0.310935
0.284432
0.253014
0.245391
0.239431
0.219938
0.171641
0.136321
0.0999446
0.0923897
0.0527103
0.040117
0.00575301
-0.063291
0.00977215
0.10468
0.164471
0.200725
0.207502
0.205068
0.198291
0.200665
0.209877
0.219381
0.205265
0.178753
0.139136
0.12043
0.111115
0.0781026
0.124912
0.113677
0.00249687
0.0254492
0.0478855
0.0512649
0.0749291
0.088377
0.0983342
0.117405
0.12636
0.154406
0.194278
0.202301
0.176558
0.132651
0.142491
0.099292
0.1323
0.165346
0.000188977
0.00234505
0.0107893
0.00163986
0.0360263
0.0497449
0.052966
0.0604591
0.0469293
0.0577767
0.122961
0.161065
0.159087
0.139581
0.136424
0.121205
0.114765
0.15146
-1.40813e-06
0.000306518
0.00120941
-0.00378316
0.0104802
0.0186004
0.0158679
0.0293546
0.0154744
-0.0022677
0.0256816
0.0812635
0.110999
0.102905
0.117805
0.112555
0.107384
0.144949
9.72957e-07
3.56175e-05
0.000202667
-0.000153309
0.00121868
0.00523279
0.00302589
0.00709086
0.000601522
-0.0133677
-0.0210195
0.0128428
0.0555881
0.0563253
0.0791137
0.0921985
0.0868137
0.114882
0.52499
0.426193
0.259517
0.153092
0.111883
0.0918807
0.09914
0.12454
0.107434
0.110692
0.0865994
0.0461002
0.0513287
-0.00431956
-0.0114466
-0.141488
-0.141254
-0.410493
0.1142
0.314693
0.263419
0.225036
0.158037
0.115189
0.119568
0.173388
0.169293
0.185845
0.155701
0.100109
0.13032
0.08473
0.10501
0.0278088
0.0311459
-0.133983
0.0138792
0.105065
0.149957
0.186207
0.143877
0.122607
0.0791606
0.124719
0.139896
0.168316
0.171657
0.12478
0.136223
0.117615
0.129753
0.125996
0.117296
0.089853
0.000189025
0.0180357
0.0523042
0.0840903
0.0869199
0.0996185
0.0537549
0.0681191
0.0793814
0.0966378
0.144769
0.141391
0.129677
0.119528
0.134028
0.151295
0.137565
0.168555
-5.8134e-05
0.00324705
0.0151943
0.0196942
0.0408779
0.085398
0.0541835
0.0189571
0.0308186
0.000580988
0.064363
0.0976417
0.107859
0.103956
0.116832
0.137435
0.131918
0.168037
-1.13569e-05
0.000585084
0.00241577
0.00674977
0.005609
0.0416264
0.0450908
-0.00793414
0.0092528
-0.0510895
-0.0274049
0.0306297
0.0737412
0.067385
0.0928255
0.121527
0.113765
0.1665
-7.35875e-06
4.54866e-05
0.000305516
0.00106073
0.00233749
0.00699587
0.0207629
-0.00670489
0.00438697
-0.023677
-0.035364
0.00239896
0.0405829
0.038843
0.0547368
0.0856808
0.0799186
0.128018
0.307226
0.463167
0.349702
0.234149
0.159143
0.116503
0.101603
0.0745009
0.114434
0.0529717
0.0864433
-0.00192885
0.0380474
-0.0703215
-0.0267512
-0.162301
-0.113652
-0.235835
0.0776242
0.312886
0.349398
0.336352
0.286392
0.20166
0.177906
0.120145
0.18521
0.102058
0.149663
0.0545554
0.100977
0.00319536
0.0440498
-0.0462222
-0.0275897
-0.122443
0.00466478
0.0437586
0.156954
0.24293
0.244469
0.215103
0.176496
0.106241
0.166998
0.114868
0.155364
0.0850059
0.110999
0.0571923
0.0658337
0.0464138
0.0345428
0.0102491
-0.000744548
0.00670022
0.063536
0.140132
0.200863
0.147493
0.156699
0.097501
0.105463
0.108083
0.133451
0.115688
0.110734
0.0916018
0.0922591
0.0842285
0.0688015
0.0645488
-8.61656e-05
0.000919798
0.00834697
0.018769
0.104722
0.0712725
0.10096
0.0609484
0.0378076
0.071537
0.0963916
0.101334
0.104271
0.103983
0.100866
0.101806
0.0810595
0.104123
-5.89481e-07
0.000147528
0.00106563
-0.00190302
0.0249623
0.0204308
0.0430677
0.0261201
-0.0145329
0.00727548
0.0403212
0.0642847
0.0752935
0.0864827
0.0910985
0.11141
0.101293
0.135098
-1.3212e-05
-3.33352e-06
5.86467e-05
-0.000106563
0.00404051
0.00409686
0.0157967
0.0136083
-0.0127391
-0.0157288
0.00305358
0.0257204
0.0350326
0.0530201
0.0613364
0.0901816
0.0963125
0.124526
0.494934
0.433477
0.238196
0.175263
0.185298
0.18722
0.13206
0.0924862
0.0722432
0.0835315
0.0631759
0.0615365
0.0188164
0.0193839
-0.0363538
-0.0297691
-0.131456
-0.080013
0.00638656
0.28124
0.233165
0.212732
0.232025
0.257933
0.209543
0.141112
0.117881
0.141882
0.12615
0.129742
0.0797258
0.0820041
0.0349363
0.0504164
-0.00612989
-0.0368573
0.00515812
0.0634509
0.0951534
0.0855906
0.137343
0.167134
0.204934
0.154808
0.118422
0.132699
0.127309
0.15113
0.103596
0.103802
0.0753616
0.0704505
0.0834801
0.0432669
0.001557
0.0162898
0.0495262
0.0179039
0.00837816
0.0417539
0.126481
0.133131
0.119021
0.106188
0.0986323
0.137663
0.120277
0.0999993
0.100848
0.0758006
0.108457
0.0873162
0.000198008
0.00229517
0.00357145
0.00823772
-0.016412
0.000602443
0.0652279
0.136913
0.120548
0.0854127
0.0790742
0.0963346
0.106816
0.0871965
0.086042
0.0758121
0.0973083
0.106443
-1.44669e-05
0.000543412
0.00206748
7.55018e-05
-0.0087876
-0.0274702
0.00873168
0.0671671
0.100151
0.0602096
0.0454143
0.0523679
0.0776711
0.0599508
0.0511537
0.0564994
0.0755213
0.105845
-1.09954e-05
7.37598e-05
0.00048051
0.00022887
-0.00130291
-0.00955804
0.00120443
0.0200402
0.058912
0.0367692
0.021146
0.0146797
0.0377798
0.0357572
0.0258373
0.0349578
0.0478439
0.0785448
0.179538
0.235406
0.197116
0.163684
0.156717
0.149964
0.120041
0.136091
0.126222
0.137257
0.0985809
0.0982507
0.056093
0.0502644
0.027624
0.0197031
-0.0173924
-0.00938606
0.0713002
0.177268
0.194296
0.204829
0.226976
0.212822
0.160482
0.190344
0.176327
0.196782
0.15684
0.159835
0.110679
0.0973157
0.093
0.0654052
0.0803939
0.0608647
0.00782409
0.0490698
0.111725
0.175811
0.184821
0.180912
0.140056
0.14963
0.138921
0.167274
0.151867
0.160687
0.137884
0.105494
0.118874
0.0663969
0.102108
0.0910777
-0.000925253
0.00570552
0.0297348
0.0803566
0.0781787
0.10219
0.0943399
0.0853825
0.0834281
0.0985341
0.113631
0.132226
0.147028
0.115172
0.125228
0.0816006
0.0956961
0.0945318
-0.000135159
0.00154969
-6.46047e-05
0.0318389
0.0262322
0.0477987
0.0818602
0.0462446
0.0174234
0.030131
0.0578759
0.0735322
0.102807
0.112536
0.109104
0.0922476
0.0906933
0.0942408
-7.04298e-06
0.000358364
0.000519076
0.00312249
0.00458312
-0.00404453
0.0492448
0.0196288
-0.0145699
-0.0108476
0.0116969
0.0123911
0.0540393
0.08302
0.0870182
0.0840685
0.0877006
0.104896
-1.00534e-06
-7.88999e-06
6.81643e-06
0.0003166
0.00171005
-0.00459467
0.0129815
0.0110489
-0.0105237
-0.0201777
-0.00070788
-0.00412784
0.0185561
0.0541418
0.0617113
0.0650146
0.0686517
0.0902088
0.152899
0.349472
0.396752
0.387544
0.317563
0.241487
0.15449
0.094913
0.0606606
0.0831647
0.0829477
0.130439
0.114877
0.143009
0.10945
0.118087
0.0488825
0.0451968
0.0542355
0.270103
0.408659
0.461584
0.473908
0.37478
0.25532
0.16747
0.0944315
0.10331
0.0943377
0.161571
0.154962
0.193563
0.16632
0.175839
0.157978
0.151225
-0.0100728
0.00753541
0.153324
0.278258
0.319027
0.308242
0.261871
0.20561
0.123148
0.0992852
0.0674343
0.109776
0.12405
0.158301
0.155396
0.150412
0.163513
0.153825
-0.00289826
-0.00681141
0.00966139
0.0887844
0.14221
0.174576
0.210039
0.201098
0.166876
0.11078
0.0585964
0.0461944
0.0713135
0.103401
0.122528
0.116543
0.140858
0.140088
-5.33903e-05
-0.000828243
-0.011028
0.00195072
0.0413454
0.0673399
0.112856
0.167314
0.15755
0.117376
0.0572261
0.0226507
0.0280554
0.0416504
0.0676912
0.0760488
0.0995011
0.118987
1.41092e-05
-0.000127246
-0.00238442
-0.00568022
0.00416046
0.0162385
0.0400734
0.102227
0.120751
0.101806
0.0595661
0.00720918
-0.00890399
-0.0115735
0.0239356
0.0378347
0.0462537
0.0906792
7.75237e-06
-2.99163e-05
-0.00032991
-0.000873317
4.71677e-05
0.00410156
0.0072337
0.0306303
0.0501862
0.0580805
0.043194
0.00508269
-0.0123214
-0.0262389
-0.00742342
0.0167127
0.013541
0.0554427
0.084657
0.179935
0.206263
0.1951
0.162728
0.160642
0.095935
0.118325
0.0794959
0.143838
0.0803591
0.150089
0.0792853
0.139363
0.0852331
0.140352
0.0720818
0.128426
0.0174129
0.0739674
0.149665
0.176053
0.197283
0.215916
0.13349
0.159951
0.100703
0.183594
0.0971019
0.183171
0.0999649
0.165365
0.113463
0.160572
0.122515
0.171328
-0.00380255
-0.0259829
-0.0042315
0.0715692
0.12915
0.158467
0.14208
0.156746
0.088512
0.150012
0.081515
0.143362
0.0922373
0.127348
0.104343
0.117565
0.10963
0.115593
-0.00145224
-0.0153928
-0.0530312
0.00195949
0.0368408
0.0959735
0.111583
0.121298
0.0975946
0.0931339
0.0660504
0.0824685
0.0797464
0.0841607
0.0897196
0.0826002
0.0953334
0.0905194
-6.83877e-05
-0.00351329
-0.025266
-0.0148348
-0.0274233
0.0034395
0.0375797
0.0923743
0.0717342
0.0552872
0.0468224
0.0327751
0.047857
0.0530462
0.059482
0.0588639
0.0679119
0.072097
-2.41847e-05
-0.000577645
-0.00295796
-0.00441911
-0.00707679
-0.00535702
0.00997574
0.0509086
0.0588267
0.0149987
0.0321438
-0.00265247
0.0317243
0.0357011
0.049429
0.0440808
0.0447397
0.0503552
-1.85974e-05
-6.90822e-05
-0.000257875
-0.000609509
-0.00250234
-0.00181627
-0.000175053
0.0089699
0.0271418
-0.000154189
0.0117283
-0.0162873
0.00784177
0.0105578
0.0303698
0.0298823
0.0300502
0.0202087
0.52974
0.589888
0.471842
0.427458
0.243135
0.311695
0.133877
0.240631
0.0877205
0.208699
0.0627174
0.219938
0.0889231
0.272677
0.214658
0.471206
0.480247
0.739732
0.169857
0.46651
0.478165
0.523686
0.36422
0.439557
0.211425
0.332171
0.148146
0.263825
0.0953575
0.236658
0.0781391
0.208793
0.132047
0.275083
0.209161
0.527981
0.0113154
0.127101
0.203194
0.387856
0.298374
0.337085
0.228553
0.288198
0.163274
0.233079
0.102393
0.188418
0.0741934
0.125806
0.0682212
0.104986
-0.00495435
0.102749
0.00119349
0.0223499
0.0107569
0.179812
0.139092
0.183348
0.146425
0.200575
0.166362
0.183568
0.110833
0.117561
0.0810428
0.0764048
0.0442901
0.0271232
-0.0546773
-0.095954
0.000126861
0.00284461
-0.0263072
0.0488498
0.0491592
0.0477972
0.043009
0.107213
0.0811599
0.117235
0.0743809
0.0478519
0.065815
0.0448879
0.0380295
0.00363248
-0.0291771
-0.175425
-1.06142e-06
0.000213548
-0.00361052
0.00181627
0.0312795
-0.00881867
-0.00285025
0.0296952
0.0333802
0.0502223
0.0789015
-0.0218527
0.0253549
0.0243084
0.0238017
0.00258917
-0.00586212
-0.162175
-1.17141e-05
-3.92304e-06
-0.00032387
-6.28138e-05
0.00591385
-0.0025543
-0.00439165
-0.00285172
0.00644438
0.0100265
0.0490669
-0.0113066
0.00788478
0.0187432
0.000120338
0.0061761
0.0140548
-0.107602
0.212781
0.36153
0.31565
0.257208
0.147295
0.162173
0.078404
0.143517
0.071441
0.153471
0.0783194
0.154312
0.0753514
0.150112
0.088122
0.189242
0.0857622
0.253402
0.0444068
0.309105
0.316705
0.318984
0.211787
0.235622
0.12725
0.207675
0.10719
0.191107
0.111953
0.182718
0.113217
0.164339
0.120662
0.169178
0.101345
0.302326
-0.00422667
0.0651256
0.100452
0.189214
0.156792
0.186675
0.135705
0.179369
0.114386
0.159742
0.103967
0.142107
0.108382
0.12514
0.117173
0.124192
0.0760083
0.124612
-0.00131081
0.0107768
0.0240896
0.123988
0.110294
0.14609
0.117341
0.133441
0.112781
0.124125
0.0930889
0.0865541
0.10084
0.0728477
0.111745
0.0910775
0.0867344
0.0254215
-0.000233623
0.00118492
-0.0118575
0.045768
0.0417133
0.0599063
0.0611597
0.0552594
0.0457053
0.0602892
0.0655548
0.0346783
0.0619881
0.0456063
0.0643805
0.0713932
0.0771211
0.0121577
-1.34513e-05
0.000440449
-0.00102474
0.00483821
0.0165256
0.00741326
0.0447878
0.0209811
0.0199928
0.0153742
0.0540854
0.00501024
0.0505259
0.0211276
0.0264231
0.0367761
0.0591526
0.0351287
-7.68531e-06
2.75615e-06
-0.000247297
-0.000627234
0.00237393
-0.00384501
0.00802082
0.00505662
0.0063552
0.00531431
0.038154
0.0098502
0.0340495
0.0294388
-0.0041411
0.0097119
0.0336973
0.0406311
0.282045
0.405088
0.323828
0.251855
0.204581
0.185818
0.14426
0.129823
0.0953033
0.113338
0.0741145
0.103917
0.0590795
0.073893
0.00428986
-0.00687581
-0.215178
-0.161628
0.108771
0.19624
0.257239
0.258604
0.24352
0.238837
0.198964
0.185291
0.135464
0.166463
0.115615
0.165856
0.123338
0.130448
0.0974239
0.0773698
0.0292067
0.00533404
0.00526793
0.0299077
0.0804514
0.0939953
0.125468
0.146797
0.161968
0.169558
0.124891
0.156182
0.120355
0.156205
0.14352
0.122406
0.138544
0.0821857
0.119539
0.109422
-0.000549241
-0.00739307
-0.0114987
-0.00978722
0.0229875
0.0674979
0.0872624
0.111932
0.105608
0.110181
0.117703
0.122648
0.142896
0.105322
0.145125
0.100313
0.126172
0.136796
-0.000284643
-0.00228843
-0.000855665
-0.0168228
-0.0233755
-0.00190592
0.00724298
0.0563635
0.0547276
0.0584858
0.0908005
0.0882054
0.103298
0.091175
0.104886
0.100757
0.117096
0.140567
-2.5691e-05
-0.000192613
-0.000587538
-0.00432641
-0.0137712
-0.0111525
-0.0117162
0.0281412
0.0400091
0.0127977
0.0470101
0.0478425
0.0597449
0.0507744
0.0598056
0.0682048
0.0920873
0.135541
2.48454e-05
6.24753e-06
-0.000210377
-0.000899082
-0.00228441
-0.00236161
-0.00671325
0.00519525
0.0232718
-0.0029964
0.00632503
0.0122148
0.0243756
0.0235457
0.0251752
0.0317699
0.0515428
0.099711
0.228869
0.251159
0.242368
0.248198
0.216265
0.204404
0.171865
0.163206
0.145847
0.124337
0.0836808
0.0576251
0.0178004
0.00653066
-0.0655447
-0.0968825
-0.265991
-0.293803
0.0622528
0.260158
0.305407
0.32546
0.307749
0.287751
0.250464
0.243866
0.239729
0.217451
0.167862
0.13866
0.090189
0.0949972
0.0414983
0.0395204
-0.00851619
-0.0719506
0.0101771
0.104731
0.162743
0.202301
0.206553
0.205056
0.198574
0.200113
0.210786
0.218812
0.201996
0.182688
0.132486
0.123475
0.107045
0.0784004
0.120159
0.11026
0.00253211
0.0258259
0.0448946
0.0527854
0.0763481
0.0856808
0.100378
0.118321
0.12664
0.156148
0.192349
0.204901
0.175832
0.133443
0.143098
0.101396
0.132894
0.165655
0.000192864
0.00245751
0.0094143
0.00138714
0.0405828
0.0448013
0.0544226
0.0636381
0.0452932
0.0599807
0.124502
0.16064
0.160511
0.140531
0.138152
0.124366
0.119258
0.154676
-1.12008e-06
0.000326582
0.00109796
-0.00560292
0.01502
0.01403
0.0165384
0.0289755
0.0163582
-0.00187662
0.0288597
0.0806637
0.113221
0.10224
0.118919
0.115327
0.112077
0.149203
6.76527e-07
3.74803e-05
0.000194993
-0.000321956
0.0017432
0.00392248
0.00258628
0.0054436
0.00155772
-0.0139072
-0.0204817
0.0133961
0.0569007
0.0568991
0.0769684
0.0930543
0.0890127
0.120269
0.528819
0.423103
0.260412
0.151893
0.111727
0.0925292
0.0970521
0.125958
0.104609
0.111269
0.0830664
0.0453978
0.0462563
-0.00428401
-0.023289
-0.144729
-0.169567
-0.416821
0.117556
0.311974
0.264269
0.224793
0.15696
0.116745
0.11642
0.176671
0.165739
0.188124
0.15187
0.10086
0.126931
0.0865602
0.0977739
0.0302334
0.0209739
-0.139027
0.0142612
0.105532
0.149564
0.18556
0.143535
0.122839
0.0772987
0.127633
0.137198
0.171307
0.169061
0.125603
0.134785
0.117904
0.129727
0.125723
0.119244
0.0935159
0.000213012
0.0184492
0.0509828
0.0840834
0.0870682
0.0986899
0.0534123
0.068776
0.0793415
0.0988744
0.144132
0.1419
0.129654
0.117242
0.137161
0.15086
0.140985
0.174972
-5.70346e-05
0.00339229
0.013494
0.0203393
0.0423281
0.082753
0.0554638
0.0183695
0.0300307
0.00287309
0.0644244
0.100343
0.106963
0.10166
0.117814
0.139767
0.134597
0.171896
-1.07595e-05
0.000615798
0.00223904
0.00734013
0.00544244
0.0382161
0.0480623
-0.0098563
0.00895421
-0.0497559
-0.0291437
0.0366885
0.074801
0.0586828
0.0961747
0.125791
0.115101
0.165808
-7.07105e-06
4.98468e-05
0.00028739
0.00112727
0.00229813
0.00565698
0.022174
-0.00806045
0.00490234
-0.0226567
-0.0388037
0.00713556
0.0435003
0.0313767
0.0553992
0.0883378
0.0811984
0.12624
0.307182
0.462703
0.349638
0.233942
0.15947
0.115904
0.102321
0.0738506
0.114689
0.0533607
0.0855677
-0.0011292
0.0368208
-0.069016
-0.0302449
-0.159849
-0.118469
-0.233508
0.0776274
0.312718
0.349079
0.335956
0.287082
0.200857
0.17875
0.119645
0.185306
0.102757
0.148706
0.0558812
0.100248
0.00552424
0.0410488
-0.0427104
-0.0301264
-0.123413
0.00467068
0.0440951
0.15607
0.242751
0.244749
0.215032
0.176735
0.106142
0.166808
0.115577
0.154884
0.0855319
0.110676
0.0582794
0.0652792
0.0476953
0.0364644
0.0100136
-0.000743571
0.0068085
0.0626367
0.140266
0.200869
0.147778
0.156734
0.0977886
0.105513
0.10826
0.133449
0.115935
0.110154
0.0912086
0.0930135
0.0842204
0.0721051
0.0655847
-8.60052e-05
0.000916052
0.00804914
0.0192284
0.104071
0.0716597
0.100808
0.0614211
0.0378037
0.0715184
0.0973527
0.101182
0.103846
0.102992
0.100156
0.101857
0.0839938
0.105974
-9.91781e-07
0.000144346
0.000995316
-0.00344493
0.0236728
0.0217569
0.0435801
0.0255162
-0.0138552
0.00793077
0.0409554
0.0641132
0.0758066
0.0853577
0.0887742
0.111588
0.1037
0.13751
-1.32724e-05
-3.52816e-06
4.73528e-05
-0.000434779
0.00369128
0.00394291
0.01577
0.0126681
-0.0125093
-0.0137065
0.00352312
0.0243044
0.0357591
0.0528751
0.0590081
0.0893141
0.0972907
0.126321
0.494349
0.434863
0.236902
0.17652
0.18502
0.187582
0.132948
0.0924702
0.0738734
0.0835057
0.0659281
0.0614453
0.0232338
0.0212844
-0.0317737
-0.0232192
-0.120451
-0.0655293
0.00562309
0.282679
0.231934
0.212587
0.232273
0.25769
0.211034
0.140193
0.119979
0.141042
0.129303
0.128222
0.0843159
0.0827159
0.0363495
0.056568
-0.00184445
-0.0300693
0.00505803
0.0642144
0.0947729
0.0849209
0.137446
0.166868
0.205696
0.153563
0.120124
0.131409
0.130038
0.149261
0.105752
0.105478
0.0728457
0.0747131
0.0843545
0.0436709
0.001546
0.0163875
0.0502615
0.0165741
0.00900094
0.0411495
0.126372
0.132594
0.119137
0.105254
0.099932
0.13735
0.118689
0.102943
0.09854
0.0757989
0.107771
0.0859026
0.000196453
0.00226982
0.00505612
0.00582921
-0.0158143
0.000831959
0.0642568
0.136535
0.120937
0.0840257
0.0797644
0.0964482
0.105601
0.0879219
0.0857801
0.0740399
0.09405
0.103984
-1.51184e-05
0.000538902
0.00223478
-0.000168572
-0.00923792
-0.0265321
0.00752474
0.0673366
0.0999179
0.0598429
0.044284
0.0540861
0.0749697
0.0600152
0.0534152
0.0534873
0.071363
0.102655
-1.10983e-05
7.39033e-05
0.000489517
0.000196117
-0.0013635
-0.00927064
0.0014094
0.0196459
0.057987
0.0372613
0.0208869
0.0150478
0.0362888
0.0354358
0.0285053
0.0334839
0.0449043
0.0756301
0.178417
0.237974
0.195395
0.165027
0.156021
0.151415
0.12061
0.137727
0.128366
0.139108
0.101744
0.101157
0.0613788
0.0540214
0.0373696
0.0247788
-0.00329523
0.00166466
0.0699356
0.179698
0.193086
0.205051
0.226254
0.213771
0.161041
0.190928
0.178373
0.197884
0.159337
0.161259
0.115524
0.0982085
0.101949
0.0674489
0.0907203
0.0711064
0.00762769
0.0499095
0.112019
0.175911
0.184185
0.180693
0.139949
0.149354
0.139848
0.167501
0.15342
0.16009
0.141219
0.103852
0.122247
0.0672666
0.106001
0.0958029
-0.000948275
0.00573493
0.0310307
0.0797549
0.0781593
0.102466
0.0929364
0.0847113
0.0829149
0.0979503
0.114691
0.130559
0.14754
0.113821
0.124606
0.0811037
0.0950011
0.0957065
-0.000138882
0.00153093
0.000972505
0.0304952
0.0263391
0.0490544
0.0796743
0.0462389
0.0162781
0.0289767
0.0579422
0.0725324
0.102252
0.111241
0.107562
0.091429
0.0870411
0.0919006
-8.1619e-06
0.000352462
0.000806335
0.00315172
0.00381191
-0.00233241
0.047178
0.0203534
-0.0154938
-0.0122857
0.0116331
0.011339
0.0537911
0.081899
0.0849073
0.0831472
0.0850708
0.100534
-8.00394e-07
-7.32353e-06
3.34929e-05
0.000319578
0.0016243
-0.00420548
0.012675
0.0111177
-0.0113135
-0.020185
-0.000764194
-0.00485289
0.0180678
0.0531381
0.0601427
0.0650628
0.0675015
0.0864504
0.153072
0.348451
0.398021
0.386938
0.319507
0.241905
0.155182
0.0975541
0.0611726
0.087543
0.0842207
0.137254
0.118266
0.151392
0.117604
0.128483
0.0615436
0.0563597
0.0544224
0.269008
0.409394
0.461212
0.475163
0.374804
0.255054
0.170135
0.0931969
0.107653
0.0931848
0.168058
0.155515
0.200358
0.172419
0.183345
0.169253
0.162083
-0.0100509
0.00707696
0.153074
0.277722
0.319197
0.308594
0.261597
0.207134
0.121461
0.102217
0.0649813
0.113624
0.122822
0.160965
0.157909
0.152699
0.168862
0.157932
-0.00289525
-0.0069912
0.00889848
0.0893495
0.141025
0.175048
0.210485
0.20101
0.166438
0.111481
0.0570044
0.0466452
0.0696188
0.102711
0.12216
0.115687
0.141513
0.139041
-5.24507e-05
-0.000857047
-0.0114739
0.00344429
0.0393457
0.0673005
0.11458
0.166103
0.157907
0.117404
0.0563772
0.0214508
0.0262925
0.0400442
0.0654938
0.0738284
0.0977795
0.11523
1.44066e-05
-0.00013174
-0.00246062
-0.00518157
0.00375496
0.0128267
0.0426911
0.100971
0.122365
0.101031
0.0601846
0.00618579
-0.0113118
-0.0119342
0.02003
0.0356048
0.0440152
0.0868272
7.88591e-06
-3.03053e-05
-0.000340416
-0.000840061
-9.90114e-05
0.00299418
0.00809966
0.0302621
0.049849
0.0578675
0.0442119
0.00492715
-0.0142619
-0.0262733
-0.0105709
0.0152171
0.0123936
0.0527191
0.0844726
0.181294
0.206311
0.194307
0.164837
0.160271
0.0980979
0.120148
0.0825734
0.147331
0.084607
0.156601
0.0866745
0.148943
0.09996
0.154202
0.0987194
0.149454
0.016905
0.0750184
0.150159
0.175209
0.198728
0.214547
0.134745
0.161267
0.10221
0.18586
0.0998791
0.187535
0.103871
0.172937
0.121591
0.169424
0.140852
0.186048
-0.0038785
-0.0261851
-0.00225481
0.0700342
0.129441
0.158511
0.141921
0.156718
0.0886707
0.150664
0.0821343
0.145628
0.0917353
0.132116
0.105171
0.120015
0.117327
0.117538
-0.00146249
-0.015451
-0.0507125
0.000864793
0.0358534
0.0966256
0.111192
0.120146
0.0967224
0.0930494
0.0644678
0.0838917
0.0773818
0.085283
0.0877614
0.0798973
0.0971861
0.0864961
-6.82401e-05
-0.00352146
-0.0261891
-0.0140595
-0.0288701
0.00460805
0.0387414
0.0899566
0.0711492
0.0555838
0.0441906
0.0330259
0.0464809
0.0510357
0.0566438
0.0561575
0.0655159
0.0660416
-2.38732e-05
-0.000576389
-0.00304058
-0.00452685
-0.00795535
-0.00840886
0.0133764
0.0491611
0.057988
0.0156603
0.0307135
-0.00395811
0.0324462
0.0335755
0.0438245
0.042866
0.0414634
0.0451655
-1.86363e-05
-6.82219e-05
-0.000260875
-0.000646391
-0.00292825
-0.00238018
0.000990392
0.0077226
0.0264678
0.000165919
0.0112346
-0.0183063
0.00864403
0.0102815
0.0258844
0.0286951
0.0283604
0.0175185
0.532808
0.586603
0.473994
0.425544
0.245889
0.311847
0.136243
0.242736
0.0901807
0.212204
0.0671324
0.226452
0.0973721
0.283489
0.233692
0.49108
0.52339
0.780506
0.172424
0.463537
0.479762
0.522651
0.365354
0.438834
0.212821
0.333951
0.149045
0.265487
0.0982265
0.240488
0.0818812
0.216585
0.140475
0.284508
0.2299
0.547581
0.0115977
0.12692
0.203169
0.386045
0.298806
0.33664
0.229202
0.288536
0.163925
0.233155
0.102754
0.190308
0.0725865
0.130716
0.0687976
0.106654
-0.000104091
0.100319
0.00120939
0.0226174
0.00970996
0.178982
0.139591
0.180369
0.147811
0.200308
0.166687
0.184131
0.108273
0.11907
0.0770954
0.0774251
0.0425343
0.0243088
-0.0559565
-0.107432
0.000127788
0.00297035
-0.0287522
0.0502665
0.050861
0.0431481
0.0462602
0.103523
0.0824546
0.119895
0.0720834
0.0461638
0.0636899
0.0429037
0.0354378
0.000299393
-0.032673
-0.188244
-6.8317e-07
0.00024502
-0.00385314
0.00195568
0.0326777
-0.0159457
0.00294909
0.0259619
0.0323665
0.053939
0.0779235
-0.0235446
0.0237128
0.0230807
0.0182638
-0.00218766
-0.00968046
-0.17165
-1.14397e-05
-2.97263e-07
-0.000345507
-7.67457e-05
0.0062494
-0.00453078
-0.00333959
-0.00504687
0.00478139
0.0109021
0.05137
-0.0125899
0.00594322
0.0201587
-0.00480452
0.00208071
0.0112093
-0.112495
0.216473
0.359519
0.316299
0.256736
0.148608
0.163416
0.0799759
0.147185
0.0737643
0.157212
0.0827218
0.160985
0.0834968
0.159851
0.108023
0.204132
0.121171
0.281868
0.0476542
0.307052
0.317122
0.318545
0.211309
0.236522
0.127851
0.210474
0.108773
0.193674
0.114099
0.188028
0.116649
0.170033
0.135356
0.176112
0.119718
0.320616
-0.00386535
0.0659169
0.100494
0.187241
0.156127
0.186131
0.13536
0.180191
0.115609
0.16139
0.103472
0.145409
0.107891
0.125929
0.123982
0.125104
0.0789169
0.126561
-0.00129126
0.0112823
0.0242739
0.121825
0.110215
0.144618
0.115827
0.132736
0.113407
0.125301
0.0916397
0.0874503
0.0995819
0.0707387
0.110712
0.0893848
0.0837149
0.0186703
-0.000232419
0.00133637
-0.0123075
0.0438497
0.0431936
0.0589062
0.0593473
0.0529023
0.0466482
0.0604225
0.0663374
0.0326764
0.0604807
0.0440504
0.0598663
0.0678449
0.0717563
0.004393
-1.25259e-05
0.000478841
-0.00106109
0.00360079
0.0169738
0.0100486
0.0433714
0.0161946
0.0221962
0.0132969
0.0562567
0.00415934
0.0476815
0.0228764
0.0183118
0.03211
0.052807
0.0321262
-7.41637e-06
1.00019e-05
-0.000246746
-0.000678565
0.00221465
-0.00363375
0.0090997
0.00137349
0.00861152
0.00284407
0.0387147
0.0104391
0.0317956
0.0327985
-0.00900643
0.00522256
0.0282695
0.0392404
-4.5313e-06
-1.87717e-05
-4.2882e-05
-9.21822e-05
-0.000250248
-0.00012329
-0.00130251
0.00101627
0.00395768
-0.00029765
-0.00386218
-0.00189693
-0.000611213
0.0153528
0.0155148
0.0133696
0.0200102
0.0414242
-8.2627e-06
2.15129e-05
5.93436e-05
3.92149e-05
6.55495e-06
-6.12571e-06
-9.40905e-05
8.3901e-05
0.00022749
-0.000272662
-0.000771948
-0.000728782
-0.000893376
0.00339781
0.00436927
0.00453449
0.00570877
0.0108586
9.22638e-06
2.95103e-05
1.97662e-05
1.25252e-05
2.26152e-05
2.43961e-05
1.58051e-05
2.12704e-05
7.49297e-05
4.64187e-05
3.32978e-05
4.81723e-05
7.45881e-05
0.000488917
0.000697734
0.000801568
0.000952708
0.00143637
8.3094e-06
3.58531e-07
-1.04269e-05
-2.16776e-05
-2.83387e-07
2.83862e-06
2.28172e-06
1.73475e-05
2.56183e-05
5.03613e-05
9.23412e-05
9.82648e-05
0.000107659
0.000152781
0.000129659
9.60637e-05
0.000118379
0.000139326
-2.70376e-06
3.86346e-06
4.52756e-06
-2.67735e-06
-6.177e-06
-5.03684e-06
-1.18531e-05
-3.22306e-06
-1.81142e-06
7.4121e-06
9.79065e-06
9.54337e-06
1.33863e-05
3.61638e-05
3.64107e-05
3.34115e-05
4.75098e-05
7.2606e-05
-3.63287e-07
3.08345e-06
8.37824e-06
4.78669e-06
-1.17161e-06
-5.31258e-06
4.63279e-06
1.52923e-05
1.36924e-05
7.37163e-06
-6.63059e-06
-2.42082e-05
-2.69964e-05
-1.77033e-05
-5.24314e-06
1.10074e-06
9.54121e-06
-4.66198e-07
-2.4295e-06
-1.86299e-06
-1.31021e-06
1.89164e-06
7.31978e-06
7.60163e-06
7.85532e-07
-3.4241e-06
-2.8257e-06
-9.41033e-07
-7.20211e-06
-1.41686e-05
-1.81557e-05
-2.13621e-05
-8.41806e-06
2.73082e-06
1.04447e-05
2.12609e-05
1.53266e-06
-4.46584e-06
-3.70609e-06
7.45332e-06
1.53508e-05
2.28503e-05
2.64032e-05
2.28276e-05
1.17362e-05
-3.39874e-06
-1.31003e-05
-1.32485e-05
-9.5556e-06
-2.28778e-06
-6.41751e-07
-4.27523e-06
-7.27865e-06
-6.66794e-06
1.35985e-06
5.12267e-08
-2.16355e-06
-4.15209e-06
-1.11127e-06
-2.07005e-06
-3.31927e-06
-6.07721e-06
-5.60417e-06
-5.80152e-06
1.96122e-06
2.06925e-06
4.14798e-07
1.09301e-06
-8.32701e-07
-6.63853e-07
-3.81136e-06
-5.23335e-06
3.34458e-07
6.24516e-07
-2.54544e-06
-6.40094e-06
-7.62796e-06
-8.0872e-06
-7.06055e-06
1.872e-06
6.14591e-06
4.85492e-06
2.14891e-06
2.31404e-07
4.51022e-08
-1.47778e-06
-7.5922e-06
-5.847e-06
-1.00816e-06
4.97964e-06
9.4273e-06
2.09923e-05
1.25413e-05
-5.08398e-05
0.000138949
0.000669847
0.000582439
0.00137353
-3.70124e-05
0.000114552
-0.0089693
-0.00271492
0.0144531
0.0222853
0.0283758
0.0440499
0.0442034
0.0547791
9.2858e-06
1.92594e-05
5.06815e-06
-8.07045e-05
-0.000111137
-6.77092e-05
-4.93048e-05
-1.33604e-05
-0.000274079
0.00027104
-0.0010618
-0.000883689
0.00105109
0.00361438
0.004419
0.00899646
0.012466
0.0143314
6.34816e-06
1.79291e-05
1.35687e-05
-1.31198e-05
-4.43077e-05
-6.45148e-05
-8.29444e-05
-0.000146414
-0.000260597
-0.000185107
-0.000234767
-0.000225938
-4.53414e-05
0.000275173
0.000332747
0.00107518
0.00194068
0.00259288
2.17746e-06
-8.42379e-07
6.6736e-06
6.27198e-06
-6.59393e-06
-3.1406e-05
-6.13816e-05
-3.67828e-05
-1.38391e-05
-7.51733e-06
-3.31171e-05
-5.44503e-05
-3.68029e-05
4.68779e-06
7.94711e-05
0.000166357
0.000258567
0.000402815
-4.52346e-06
-3.29818e-07
8.96234e-07
-1.27525e-05
-3.01903e-05
-3.1883e-05
-2.02948e-05
8.02006e-06
3.76418e-05
5.51257e-05
5.98646e-05
2.78951e-05
1.74571e-06
9.33239e-06
1.91478e-07
-2.72773e-06
1.93374e-05
3.7586e-05
9.22398e-07
7.70872e-06
7.45818e-06
-2.10847e-06
-6.99475e-06
-9.77153e-06
-8.83722e-06
-1.0147e-05
-1.52058e-05
-9.57928e-06
-1.11288e-06
9.95466e-06
1.40935e-05
2.29527e-05
2.85594e-05
2.60234e-05
1.31047e-05
-5.08188e-06
5.39041e-07
3.11763e-06
3.58532e-06
-7.13033e-06
-8.50074e-06
-5.07626e-06
-1.36251e-06
-4.71974e-06
-6.97838e-06
-4.42695e-06
6.49963e-06
2.40771e-06
-8.7982e-06
-5.59585e-06
-4.97142e-06
-5.95233e-06
-4.03364e-06
-1.05978e-05
-1.03361e-06
-2.53134e-06
-3.96493e-06
9.10554e-07
8.25824e-06
9.13377e-06
5.64481e-06
3.18941e-06
-6.32546e-08
-9.15552e-07
9.5525e-07
3.2553e-06
5.5069e-06
6.57415e-06
-1.26637e-06
-1.26709e-05
-1.22266e-05
-1.30373e-05
-4.18075e-07
-1.36829e-06
-1.10137e-07
-2.24096e-06
-7.32442e-06
-4.42405e-06
5.18584e-06
1.438e-06
8.0822e-08
-8.54517e-06
-1.20277e-05
-1.08345e-05
-8.16431e-06
-1.08028e-05
-1.17407e-05
-1.10311e-05
-1.56021e-05
-2.26319e-05
1.3123e-06
2.41419e-06
1.05388e-06
-7.52535e-07
-2.18099e-07
2.33266e-06
2.84065e-06
1.24202e-06
4.30607e-08
2.06068e-06
3.20971e-06