/*--------------------------------*- C++ -*----------------------------------*\
| =========                 |                                                 |
| \\      /  F ield         | OpenFOAM: The Open Source CFD Toolbox           |
|  \\    /   O peration     | Version:  3.0.1                                 |
|   \\  /    A nd           | Web:      www.OpenFOAM.org                      |
|    \\/     M anipulation  |                                                 |
\*---------------------------------------------------------------------------*/
FoamFile
{
    version     2.0;
    format      ascii;
    class       volScalarField;
    location    "0.1";
    object      p;
}
// * * * * * * * * * * * * * * * * * * * * * * * * * * * * * * * * * * * * * //

dimensions      [0 2 -2 0 0 0 0];

internalField   nonuniform List<scalar> 
244500
(
239.587
227.006
221.947
220.267
219.129
217.938
216.61
215.201
213.743
212.266
210.737
209.16
207.515
205.83
204.06
202.145
200.077
197.482
236.75
226.878
222.065
220.335
219.168
217.956
216.618
215.207
213.747
212.269
210.741
209.165
207.52
205.834
204.07
202.154
200.101
197.621
235.037
227.035
222.441
220.52
219.263
218.008
216.645
215.221
213.756
212.277
210.75
209.173
207.528
205.842
204.086
202.171
200.157
197.808
233.347
227.167
222.873
220.751
219.398
218.098
216.703
215.259
213.781
212.297
210.766
209.186
207.541
205.855
204.107
202.2
200.227
198.016
232.195
227.191
223.251
220.982
219.541
218.206
216.787
215.321
213.826
212.331
210.793
209.209
207.562
205.875
204.135
202.24
200.307
198.22
230.488
227.124
223.585
221.22
219.68
218.31
216.88
215.4
213.887
212.378
210.83
209.24
207.591
205.902
204.169
202.292
200.392
198.404
228.802
226.971
223.84
221.454
219.819
218.405
216.968
215.48
213.955
212.435
210.876
209.279
207.627
205.937
204.209
202.353
200.48
198.558
241.675
227.569
222.166
220.35
219.137
217.935
216.632
215.23
213.776
212.275
210.723
209.158
207.525
205.843
204.092
202.183
200.126
197.488
238.354
227.434
222.287
220.417
219.174
217.952
216.642
215.236
213.78
212.279
210.727
209.162
207.531
205.848
204.102
202.194
200.152
197.617
236.012
227.534
222.655
220.602
219.269
218.004
216.67
215.251
213.791
212.288
210.733
209.169
207.539
205.856
204.119
202.212
200.207
197.794
234.443
227.638
223.066
220.821
219.4
218.094
216.729
215.287
213.817
212.308
210.748
209.183
207.552
205.868
204.142
202.241
200.275
197.997
233.203
227.675
223.449
221.057
219.549
218.21
216.815
215.349
213.863
212.341
210.776
209.207
207.574
205.888
204.17
202.282
200.352
198.2
231.959
227.618
223.766
221.288
219.691
218.32
216.906
215.424
213.923
212.388
210.814
209.238
207.603
205.915
204.204
202.335
200.432
198.386
230.817
227.482
224.026
221.526
219.832
218.42
216.991
215.504
213.993
212.445
210.863
209.276
207.635
205.947
204.241
202.397
200.516
198.551
240.306
227.041
221.905
220.235
219.114
217.95
216.652
215.229
213.778
212.273
210.707
209.132
207.521
205.837
204.101
202.212
200.243
197.59
236.974
226.888
222.024
220.303
219.154
217.967
216.663
215.235
213.782
212.279
210.711
209.135
207.526
205.843
204.109
202.224
200.27
197.7
234.71
226.992
222.395
220.489
219.25
218.02
216.691
215.25
213.793
212.289
210.717
209.141
207.535
205.852
204.124
202.244
200.325
197.883
233.216
227.125
222.822
220.716
219.384
218.111
216.75
215.286
213.82
212.309
210.732
209.155
207.549
205.865
204.145
202.274
200.394
198.094
231.59
227.185
223.227
220.959
219.528
218.217
216.829
215.346
213.866
212.344
210.759
209.178
207.57
205.884
204.172
202.314
200.469
198.308
230.48
227.19
223.567
221.2
219.669
218.325
216.92
215.424
213.93
212.392
210.801
209.214
207.599
205.912
204.206
202.365
200.543
198.506
230.257
227.179
223.853
221.445
219.807
218.421
217.001
215.502
214
212.445
210.85
209.254
207.632
205.945
204.244
202.427
200.617
198.678
239.832
226.713
221.789
220.216
219.135
217.958
216.651
215.253
213.802
212.311
210.763
209.18
207.572
205.915
204.254
202.446
200.661
198.309
236.364
226.534
221.902
220.283
219.175
217.976
216.66
215.259
213.806
212.315
210.767
209.183
207.577
205.919
204.263
202.457
200.687
198.371
233.564
226.597
222.263
220.467
219.272
218.028
216.688
215.275
213.817
212.325
210.775
209.19
207.585
205.926
204.278
202.474
200.735
198.511
231.738
226.672
222.684
220.696
219.409
218.12
216.747
215.313
213.842
212.344
210.79
209.202
207.598
205.937
204.297
202.496
200.792
198.7
230.239
226.687
223.058
220.926
219.551
218.229
216.835
215.377
213.889
212.379
210.817
209.224
207.617
205.954
204.32
202.526
200.849
198.894
228.698
226.641
223.392
221.17
219.694
218.337
216.929
215.454
213.949
212.424
210.856
209.258
207.645
205.978
204.347
202.563
200.902
199.066
228.099
226.577
223.675
221.416
219.833
218.437
217.019
215.535
214.016
212.476
210.9
209.294
207.677
206.008
204.376
202.608
200.946
199.204
241.793
227.66
222.269
220.505
219.28
218.03
216.704
215.298
213.827
212.328
210.747
209.151
207.527
205.838
204.095
202.219
200.237
197.855
238.692
227.52
222.395
220.574
219.318
218.047
216.712
215.304
213.832
212.333
210.752
209.154
207.533
205.843
204.105
202.229
200.261
197.953
236.148
227.628
222.773
220.763
219.414
218.099
216.74
215.32
213.843
212.343
210.76
209.16
207.542
205.852
204.12
202.245
200.311
198.093
234.051
227.727
223.193
220.987
219.546
218.19
216.799
215.358
213.868
212.363
210.774
209.173
207.556
205.865
204.142
202.27
200.371
198.257
232.696
227.798
223.596
221.223
219.69
218.304
216.887
215.419
213.913
212.397
210.801
209.196
207.578
205.883
204.169
202.304
200.436
198.425
231.929
227.821
223.933
221.455
219.829
218.415
216.982
215.492
213.97
212.44
210.838
209.23
207.609
205.91
204.202
202.349
200.503
198.581
231.394
227.787
224.207
221.694
219.969
218.519
217.07
215.568
214.039
212.494
210.886
209.27
207.642
205.943
204.238
202.404
200.571
198.71
240.07
227.63
222.369
220.562
219.33
218.048
216.725
215.297
213.815
212.331
210.742
209.153
207.497
205.794
204.032
202.115
200.033
197.536
237.523
227.566
222.495
220.632
219.371
218.064
216.735
215.304
213.818
212.337
210.746
209.157
207.503
205.798
204.043
202.124
200.059
197.632
235.917
227.769
222.884
220.826
219.47
218.115
216.763
215.32
213.828
212.348
210.753
209.164
207.512
205.804
204.059
202.141
200.115
197.775
234.994
227.989
223.325
221.058
219.606
218.206
216.825
215.358
213.854
212.371
210.768
209.178
207.525
205.815
204.082
202.166
200.185
197.941
233.765
228.108
223.739
221.303
219.748
218.316
216.91
215.419
213.902
212.406
210.794
209.201
207.546
205.834
204.112
202.203
200.263
198.112
232.74
228.126
224.088
221.55
219.893
218.434
217.009
215.496
213.967
212.451
210.831
209.235
207.576
205.862
204.147
202.251
200.346
198.278
231.988
228.09
224.385
221.801
220.034
218.543
217.1
215.577
214.042
212.502
210.875
209.275
207.611
205.899
204.187
202.31
200.429
198.43
240.814
227.801
222.5
220.673
219.389
218.094
216.746
215.296
213.808
212.305
210.738
209.165
207.504
205.814
204.045
202.144
200.08
197.608
238.086
227.701
222.623
220.74
219.427
218.11
216.755
215.302
213.812
212.31
210.741
209.169
207.509
205.818
204.055
202.152
200.106
197.707
236.395
227.873
223.008
220.929
219.523
218.162
216.784
215.318
213.822
212.32
210.748
209.178
207.517
205.826
204.072
202.167
200.163
197.851
234.763
228.015
223.429
221.152
219.652
218.251
216.844
215.355
213.847
212.34
210.762
209.192
207.531
205.838
204.094
202.192
200.233
198.016
232.886
228.048
223.83
221.391
219.799
218.367
216.931
215.417
213.895
212.375
210.79
209.216
207.552
205.857
204.123
202.227
200.311
198.185
231.523
228.027
224.166
221.63
219.941
218.478
217.021
215.494
213.959
212.422
210.829
209.249
207.581
205.884
204.157
202.274
200.394
198.345
231.012
227.978
224.439
221.87
220.081
218.58
217.106
215.573
214.031
212.476
210.876
209.287
207.617
205.919
204.195
202.328
200.477
198.491
239.486
227.178
222.103
220.386
219.189
217.955
216.652
215.258
213.8
212.31
210.743
209.148
207.492
205.803
204.021
202.096
200.036
197.517
237.121
227.105
222.231
220.456
219.228
217.972
216.661
215.265
213.804
212.315
210.748
209.152
207.497
205.808
204.031
202.106
200.061
197.637
235.368
227.292
222.614
220.643
219.323
218.025
216.689
215.28
213.814
212.325
210.755
209.16
207.505
205.817
204.048
202.123
200.117
197.809
233.915
227.444
223.046
220.876
219.462
218.12
216.752
215.32
213.84
212.345
210.771
209.173
207.518
205.83
204.071
202.15
200.188
198.003
233.046
227.565
223.45
221.114
219.608
218.235
216.842
215.384
213.885
212.379
210.797
209.195
207.539
205.85
204.1
202.19
200.268
198.195
232.082
227.575
223.783
221.352
219.752
218.349
216.94
215.462
213.945
212.423
210.834
209.228
207.57
205.879
204.135
202.242
200.355
198.37
231.305
227.48
224.048
221.589
219.895
218.456
217.033
215.542
214.012
212.475
210.878
209.265
207.606
205.915
204.177
202.306
200.444
198.522
238.273
226.563
221.845
220.275
219.157
217.945
216.639
215.239
213.776
212.302
210.789
209.181
207.565
205.915
204.184
202.349
200.551
198.243
235.293
226.449
221.968
220.345
219.196
217.961
216.648
215.246
213.78
212.305
210.795
209.186
207.569
205.923
204.194
202.357
200.574
198.35
233.581
226.663
222.366
220.54
219.294
218.012
216.675
215.262
213.789
212.313
210.805
209.192
207.576
205.934
204.209
202.373
200.625
198.533
232.533
226.901
222.81
220.772
219.429
218.103
216.735
215.3
213.813
212.333
210.822
209.204
207.587
205.949
204.228
202.397
200.686
198.733
231.533
227.03
223.223
221.018
219.576
218.216
216.824
215.363
213.858
212.368
210.849
209.225
207.606
205.969
204.251
202.432
200.747
198.917
230.626
227.119
223.58
221.265
219.72
218.328
216.921
215.437
213.915
212.412
210.882
209.254
207.633
205.995
204.276
202.478
200.804
199.066
230.063
227.117
223.88
221.513
219.856
218.429
217.015
215.522
213.987
212.467
210.921
209.287
207.664
206.027
204.305
202.53
200.856
199.178
239.376
226.826
221.877
220.222
219.07
217.893
216.612
215.216
213.78
212.286
210.747
209.165
207.521
205.851
204.109
202.253
200.387
198.011
236.503
226.731
222.004
220.291
219.108
217.91
216.622
215.222
213.785
212.29
210.752
209.17
207.526
205.857
204.118
202.26
200.41
198.134
234.648
226.878
222.378
220.478
219.205
217.962
216.65
215.237
213.796
212.3
210.759
209.179
207.534
205.867
204.134
202.277
200.461
198.318
233.016
227.048
222.823
220.716
219.346
218.057
216.71
215.274
213.823
212.32
210.775
209.193
207.546
205.88
204.153
202.303
200.522
198.515
231.756
227.144
223.232
220.962
219.497
218.171
216.794
215.337
213.87
212.354
210.802
209.215
207.566
205.901
204.178
202.339
200.587
198.695
230.6
227.174
223.588
221.213
219.647
218.286
216.887
215.414
213.93
212.399
210.838
209.246
207.595
205.928
204.21
202.385
200.652
198.844
229.986
227.142
223.88
221.467
219.796
218.389
216.974
215.496
214.001
212.454
210.879
209.28
207.628
205.962
204.249
202.442
200.713
198.957
239.593
227.011
221.95
220.272
219.131
217.938
216.61
215.193
213.743
212.259
210.724
209.152
207.505
205.813
204.047
202.144
200.077
197.543
236.756
226.884
222.069
220.339
219.169
217.956
216.619
215.197
213.747
212.263
210.728
209.157
207.511
205.818
204.057
202.154
200.101
197.676
235.042
227.042
222.445
220.525
219.264
218.007
216.647
215.211
213.756
212.272
210.735
209.165
207.519
205.826
204.073
202.173
200.154
197.856
233.356
227.174
222.877
220.757
219.399
218.098
216.705
215.248
213.782
212.292
210.751
209.179
207.532
205.839
204.094
202.203
200.221
198.059
232.208
227.198
223.254
220.988
219.542
218.206
216.789
215.31
213.827
212.326
210.779
209.202
207.553
205.859
204.123
202.244
200.299
198.256
230.505
227.129
223.588
221.224
219.681
218.31
216.881
215.39
213.89
212.372
210.817
209.234
207.583
205.888
204.157
202.295
200.383
198.434
228.824
226.973
223.843
221.459
219.819
218.406
216.967
215.471
213.958
212.428
210.864
209.273
207.619
205.924
204.198
202.355
200.471
198.584
241.662
227.565
222.165
220.34
219.132
217.932
216.621
215.225
213.772
212.26
210.717
209.14
207.503
205.822
204.05
202.126
200.048
197.389
238.342
227.432
222.286
220.408
219.17
217.949
216.63
215.23
213.777
212.263
210.72
209.145
207.507
205.828
204.06
202.136
200.074
197.523
236
227.533
222.655
220.593
219.265
218.001
216.657
215.245
213.788
212.272
210.727
209.153
207.515
205.837
204.077
202.154
200.13
197.708
234.432
227.639
223.066
220.813
219.397
218.091
216.716
215.282
213.815
212.291
210.742
209.167
207.528
205.851
204.1
202.184
200.201
197.921
233.192
227.678
223.45
221.05
219.547
218.205
216.802
215.344
213.86
212.324
210.77
209.19
207.55
205.872
204.129
202.226
200.281
198.135
231.949
227.624
223.767
221.282
219.69
218.315
216.894
215.419
213.92
212.371
210.809
209.222
207.579
205.9
204.163
202.281
200.367
198.334
230.81
227.491
224.027
221.522
219.83
218.414
216.981
215.498
213.989
212.43
210.859
209.259
207.613
205.933
204.199
202.346
200.456
198.508
240.294
227.041
221.903
220.223
219.111
217.942
216.641
215.225
213.769
212.264
210.696
209.118
207.505
205.802
204.059
202.153
200.142
197.407
236.962
226.888
222.021
220.291
219.15
217.961
216.651
215.231
213.773
212.269
210.699
209.121
207.51
205.807
204.066
202.166
200.169
197.528
234.698
226.993
222.391
220.476
219.247
218.013
216.679
215.246
213.784
212.279
210.706
209.127
207.52
205.816
204.081
202.188
200.227
197.728
233.204
227.127
222.817
220.704
219.381
218.102
216.738
215.283
213.811
212.299
210.72
209.14
207.534
205.829
204.101
202.221
200.3
197.957
231.581
227.189
223.22
220.946
219.525
218.208
216.819
215.343
213.857
212.335
210.747
209.163
207.556
205.849
204.129
202.265
200.381
198.19
230.474
227.191
223.558
221.188
219.665
218.315
216.911
215.42
213.92
212.383
210.789
209.199
207.586
205.877
204.163
202.321
200.463
198.407
230.251
227.179
223.843
221.434
219.802
218.409
216.993
215.498
213.989
212.436
210.837
209.24
207.621
205.911
204.203
202.388
200.544
198.596
239.809
226.694
221.773
220.202
219.123
217.951
216.64
215.248
213.795
212.298
210.758
209.166
207.555
205.903
204.226
202.412
200.629
198.251
236.34
226.514
221.887
220.269
219.163
217.969
216.649
215.254
213.8
212.302
210.763
209.171
207.56
205.908
204.234
202.422
200.655
198.317
233.54
226.576
222.248
220.452
219.259
218.022
216.677
215.27
213.811
212.31
210.771
209.178
207.567
205.917
204.25
202.438
200.706
198.46
231.714
226.65
222.669
220.681
219.397
218.113
216.737
215.309
213.837
212.329
210.787
209.19
207.58
205.929
204.269
202.461
200.764
198.653
230.211
226.662
223.044
220.912
219.539
218.223
216.824
215.374
213.883
212.364
210.815
209.211
207.599
205.946
204.292
202.492
200.823
198.851
228.667
226.617
223.377
221.155
219.683
218.33
216.919
215.452
213.942
212.41
210.854
209.244
207.628
205.971
204.319
202.53
200.878
199.026
228.065
226.554
223.66
221.401
219.823
218.43
217.009
215.532
214.009
212.463
210.898
209.281
207.661
206.002
204.349
202.578
200.924
199.167
241.768
227.634
222.25
220.487
219.267
218.021
216.695
215.293
213.823
212.323
210.742
209.148
207.525
205.829
204.093
202.226
200.231
197.866
238.667
227.495
222.376
220.556
219.305
218.038
216.703
215.299
213.827
212.328
210.746
209.151
207.531
205.834
204.102
202.237
200.255
197.96
236.122
227.604
222.754
220.745
219.401
218.09
216.731
215.315
213.838
212.339
210.754
209.157
207.54
205.842
204.118
202.255
200.304
198.095
234.023
227.703
223.174
220.969
219.533
218.181
216.791
215.353
213.864
212.359
210.768
209.17
207.555
205.854
204.139
202.281
200.362
198.254
232.668
227.776
223.576
221.205
219.678
218.295
216.879
215.414
213.909
212.393
210.795
209.193
207.577
205.873
204.166
202.316
200.426
198.418
231.905
227.8
223.911
221.438
219.817
218.407
216.974
215.488
213.966
212.435
210.833
209.226
207.608
205.899
204.198
202.362
200.492
198.57
231.37
227.766
224.184
221.677
219.958
218.51
217.063
215.564
214.034
212.489
210.88
209.266
207.642
205.933
204.235
202.416
200.56
198.698
240.055
227.613
222.361
220.548
219.319
218.047
216.714
215.295
213.812
212.324
210.747
209.145
207.502
205.799
204.027
202.121
200.023
197.546
237.508
227.549
222.487
220.619
219.359
218.064
216.723
215.302
213.815
212.33
210.752
209.148
207.507
205.804
204.036
202.132
200.05
197.644
235.9
227.753
222.876
220.812
219.457
218.115
216.751
215.318
213.825
212.341
210.76
209.155
207.516
205.812
204.051
202.149
200.105
197.788
234.977
227.971
223.316
221.044
219.594
218.207
216.812
215.357
213.852
212.363
210.776
209.167
207.53
205.823
204.073
202.176
200.174
197.956
233.745
228.09
223.729
221.289
219.737
218.316
216.897
215.418
213.899
212.398
210.802
209.19
207.552
205.842
204.102
202.215
200.251
198.13
232.714
228.106
224.079
221.535
219.884
218.434
216.996
215.496
213.963
212.444
210.839
209.224
207.583
205.87
204.137
202.264
200.334
198.3
231.956
228.066
224.375
221.785
220.025
218.541
217.088
215.577
214.036
212.496
210.882
209.264
207.619
205.906
204.178
202.323
200.417
198.453
240.794
227.779
222.488
220.659
219.381
218.09
216.737
215.298
213.807
212.306
210.749
209.165
207.516
205.832
204.054
202.175
200.105
197.651
238.065
227.679
222.61
220.726
219.419
218.107
216.746
215.304
213.811
212.309
210.754
209.169
207.521
205.837
204.063
202.184
200.131
197.748
236.375
227.85
222.995
220.914
219.514
218.16
216.775
215.32
213.821
212.318
210.761
209.177
207.529
205.846
204.077
202.199
200.187
197.889
234.743
227.993
223.416
221.136
219.644
218.249
216.834
215.358
213.846
212.338
210.777
209.191
207.543
205.858
204.098
202.224
200.256
198.051
232.865
228.025
223.816
221.374
219.791
218.363
216.92
215.421
213.893
212.373
210.805
209.213
207.564
205.877
204.126
202.26
200.333
198.217
231.503
228.005
224.152
221.614
219.934
218.473
217.011
215.497
213.957
212.42
210.843
209.246
207.594
205.904
204.158
202.306
200.414
198.374
230.991
227.958
224.427
221.855
220.074
218.574
217.097
215.576
214.028
212.476
210.889
209.283
207.631
205.938
204.197
202.36
200.494
198.518
239.473
227.162
222.099
220.381
219.181
217.959
216.651
215.257
213.806
212.311
210.753
209.159
207.505
205.827
204.038
202.134
200.074
197.581
237.107
227.089
222.227
220.451
219.22
217.977
216.661
215.263
213.81
212.316
210.758
209.163
207.509
205.832
204.048
202.142
200.1
197.697
235.356
227.276
222.611
220.639
219.315
218.03
216.689
215.278
213.821
212.325
210.766
209.171
207.517
205.842
204.064
202.16
200.155
197.863
233.904
227.429
223.044
220.872
219.454
218.126
216.751
215.317
213.847
212.344
210.781
209.184
207.529
205.856
204.085
202.188
200.226
198.051
233.037
227.552
223.449
221.109
219.6
218.241
216.84
215.381
213.893
212.378
210.808
209.206
207.55
205.877
204.113
202.227
200.306
198.237
232.073
227.563
223.782
221.346
219.744
218.355
216.937
215.459
213.952
212.422
210.846
209.238
207.58
205.905
204.148
202.278
200.391
198.409
231.298
227.467
224.047
221.583
219.889
218.462
217.031
215.541
214.018
212.473
210.89
209.275
207.617
205.94
204.188
202.341
200.478
198.556
238.262
226.553
221.838
220.271
219.15
217.946
216.642
215.237
213.783
212.31
210.799
209.197
207.577
205.948
204.216
202.403
200.629
198.389
235.282
226.438
221.961
220.341
219.189
217.962
216.652
215.243
213.786
212.314
210.805
209.202
207.58
205.955
204.226
202.41
200.652
198.489
233.569
226.653
222.359
220.535
219.286
218.013
216.679
215.258
213.796
212.322
210.815
209.209
207.586
205.967
204.242
202.425
200.701
198.661
232.521
226.89
222.803
220.768
219.422
218.104
216.74
215.296
213.82
212.341
210.832
209.221
207.596
205.983
204.26
202.448
200.759
198.848
231.521
227.019
223.217
221.014
219.569
218.217
216.828
215.359
213.866
212.376
210.859
209.242
207.613
206.003
204.282
202.482
200.816
199.018
230.614
227.108
223.574
221.261
219.715
218.33
216.924
215.434
213.924
212.42
210.892
209.27
207.639
206.028
204.306
202.526
200.87
199.158
230.051
227.106
223.874
221.51
219.852
218.43
217.018
215.52
213.997
212.474
210.932
209.303
207.67
206.06
204.335
202.578
200.917
199.252
239.358
226.812
221.873
220.221
219.07
217.896
216.618
215.217
213.788
212.294
210.754
209.184
207.532
205.879
204.139
202.284
200.453
198.088
236.484
226.718
222.001
220.29
219.108
217.913
216.629
215.223
213.792
212.299
210.758
209.19
207.537
205.885
204.15
202.29
200.476
198.209
234.628
226.865
222.376
220.478
219.205
217.965
216.657
215.237
213.804
212.309
210.766
209.199
207.544
205.894
204.166
202.304
200.527
198.389
232.996
227.036
222.822
220.717
219.346
218.06
216.717
215.275
213.83
212.329
210.78
209.214
207.555
205.907
204.186
202.328
200.587
198.579
231.735
227.134
223.232
220.964
219.496
218.173
216.8
215.336
213.877
212.362
210.807
209.237
207.574
205.927
204.211
202.361
200.65
198.752
230.578
227.164
223.587
221.215
219.646
218.288
216.891
215.414
213.938
212.406
210.843
209.267
207.602
205.954
204.242
202.406
200.713
198.893
229.963
227.134
223.88
221.47
219.795
218.391
216.977
215.496
214.01
212.459
210.886
209.301
207.634
205.987
204.28
202.461
200.77
198.998
227.653
226.77
224.13
221.778
220.006
218.525
217.077
215.582
214.045
212.507
210.936
209.331
207.676
205.984
204.263
202.441
200.598
198.733
228.297
226.746
224.433
222.167
220.274
218.686
217.203
215.698
214.162
212.614
211.027
209.416
207.752
206.063
204.351
202.565
200.753
198.919
228.494
226.732
224.631
222.505
220.582
218.892
217.357
215.832
214.287
212.733
211.147
209.524
207.845
206.166
204.467
202.706
200.931
199.121
229.259
226.817
224.799
222.813
220.923
219.162
217.549
215.986
214.424
212.853
211.261
209.638
207.967
206.291
204.594
202.849
201.104
199.344
228.591
226.605
224.82
223.019
221.222
219.471
217.799
216.184
214.597
213.014
211.419
209.785
208.119
206.457
204.758
203.045
201.335
199.588
229.821
226.652
224.871
223.201
221.507
219.781
218.086
216.418
214.787
213.178
211.564
209.935
208.282
206.636
204.961
203.264
201.589
199.901
227.333
226.007
224.746
223.33
221.734
220.077
218.402
216.724
215.064
213.413
211.768
210.146
208.5
206.847
205.181
203.504
201.854
200.205
223.789
225.508
224.906
223.637
222.082
220.406
218.724
217.051
215.361
213.663
211.995
210.36
208.718
207.078
205.454
203.831
202.205
200.58
226.614
226.377
225.356
223.974
222.375
220.726
219.043
217.364
215.679
213.965
212.278
210.635
208.991
207.351
205.747
204.157
202.571
200.98
229.575
228.009
226.346
224.644
222.942
221.216
219.452
217.706
215.978
214.244
212.553
210.9
209.255
207.614
206.026
204.462
202.901
201.401
229.522
227.243
224.287
221.839
220.026
218.549
217.098
215.602
214.079
212.517
210.932
209.333
207.687
205.998
204.29
202.476
200.621
198.73
228.586
226.927
224.529
222.209
220.286
218.705
217.219
215.722
214.203
212.628
211.027
209.412
207.755
206.07
204.372
202.601
200.776
198.931
226.968
226.577
224.684
222.547
220.628
218.931
217.365
215.843
214.315
212.741
211.145
209.522
207.857
206.176
204.481
202.723
200.923
199.119
227.766
226.486
224.777
222.827
220.944
219.186
217.548
216.005
214.458
212.866
211.265
209.637
207.967
206.295
204.619
202.889
201.141
199.357
227.019
226.492
224.885
223.079
221.277
219.506
217.794
216.185
214.604
213.008
211.408
209.78
208.115
206.452
204.77
203.045
201.322
199.58
228.252
226.71
225.01
223.279
221.546
219.813
218.091
216.443
214.81
213.182
211.566
209.939
208.292
206.653
204.981
203.289
201.606
199.895
227.606
226.155
224.95
223.441
221.812
220.117
218.407
216.729
215.053
213.401
211.769
210.13
208.486
206.839
205.175
203.5
201.852
200.212
229.512
227.031
225.321
223.791
222.157
220.462
218.768
217.073
215.366
213.676
212.016
210.363
208.718
207.093
205.465
203.834
202.232
200.601
227.83
226.979
225.605
224.123
222.523
220.81
219.083
217.375
215.669
213.958
212.276
210.624
208.968
207.323
205.717
204.113
202.534
201.011
233.025
229.35
226.992
224.995
223.145
221.326
219.513
217.752
216.012
214.27
212.56
210.898
209.257
207.622
206.029
204.459
202.913
201.42
230.282
227.124
224.166
221.772
219.997
218.545
217.103
215.605
214.093
212.521
210.926
209.32
207.684
205.996
204.289
202.505
200.702
198.863
229.577
226.951
224.432
222.148
220.269
218.712
217.229
215.731
214.211
212.624
211.018
209.404
207.76
206.084
204.378
202.63
200.829
199.029
228.337
226.728
224.647
222.517
220.608
218.931
217.373
215.859
214.33
212.744
211.145
209.517
207.855
206.181
204.473
202.739
200.966
199.191
228.966
226.875
224.831
222.839
220.951
219.206
217.561
216.014
214.464
212.869
211.269
209.639
207.976
206.312
204.624
202.908
201.157
199.384
230.029
226.976
224.95
223.11
221.291
219.524
217.814
216.212
214.626
213.024
211.436
209.794
208.126
206.465
204.768
203.06
201.33
199.601
229.195
226.923
225.02
223.31
221.589
219.84
218.11
216.458
214.828
213.196
211.598
209.949
208.293
206.655
204.987
203.304
201.621
199.891
226.472
226.065
224.911
223.458
221.854
220.161
218.442
216.769
215.093
213.419
211.789
210.153
208.496
206.853
205.177
203.503
201.856
200.201
223.568
225.623
225.045
223.74
222.16
220.483
218.798
217.113
215.396
213.683
212.019
210.379
208.732
207.103
205.467
203.842
202.241
200.592
225.951
226.006
225.311
224.064
222.523
220.853
219.157
217.437
215.719
213.99
212.303
210.651
208.989
207.347
205.732
204.122
202.546
201.007
229.833
228.746
226.902
225.013
223.229
221.404
219.592
217.794
216.038
214.3
212.595
210.922
209.26
207.627
206.035
204.459
202.921
201.422
227.343
226.43
223.973
221.737
220.019
218.56
217.132
215.64
214.108
212.55
210.97
209.354
207.724
206.053
204.41
202.673
200.993
199.333
226.404
226.23
224.279
222.139
220.306
218.737
217.265
215.764
214.229
212.654
211.058
209.436
207.792
206.132
204.481
202.768
201.06
199.426
226.309
226.138
224.507
222.497
220.626
218.951
217.417
215.89
214.345
212.773
211.173
209.543
207.878
206.224
204.565
202.872
201.173
199.517
226.658
226.094
224.669
222.816
220.982
219.236
217.614
216.046
214.477
212.898
211.29
209.661
207.999
206.342
204.683
202.975
201.264
199.612
227.101
226.372
224.887
223.127
221.329
219.566
217.866
216.235
214.627
213.051
211.442
209.79
208.139
206.486
204.817
203.127
201.43
199.773
229.055
227.084
225.194
223.42
221.652
219.905
218.181
216.497
214.84
213.218
211.592
209.946
208.316
206.673
205.013
203.352
201.691
200.013
232.18
227.609
225.466
223.702
221.97
220.234
218.501
216.799
215.117
213.451
211.799
210.154
208.513
206.861
205.197
203.539
201.899
200.27
230.088
228.103
225.985
224.16
222.402
220.644
218.889
217.153
215.426
213.716
212.032
210.381
208.75
207.108
205.476
203.876
202.268
200.634
227.76
227.231
225.98
224.447
222.759
221.033
219.261
217.503
215.753
214.023
212.329
210.659
209.011
207.352
205.72
204.127
202.549
201.008
233.258
230.027
227.635
225.541
223.536
221.632
219.748
217.909
216.108
214.36
212.635
210.942
209.293
207.656
206.066
204.501
202.952
201.408
231.468
227.719
224.508
222.01
220.16
218.652
217.182
215.664
214.121
212.56
210.953
209.337
207.696
205.994
204.289
202.491
200.669
198.855
230.435
227.471
224.763
222.375
220.424
218.817
217.305
215.779
214.243
212.667
211.049
209.425
207.769
206.078
204.369
202.595
200.804
198.988
229.712
227.207
224.917
222.71
220.76
219.043
217.461
215.908
214.361
212.784
211.165
209.534
207.865
206.179
204.483
202.723
200.956
199.15
228.7
226.814
224.982
223.001
221.083
219.3
217.638
216.065
214.505
212.917
211.29
209.655
207.986
206.302
204.615
202.876
201.143
199.346
226.521
226.421
225.028
223.267
221.438
219.65
217.916
216.268
214.658
213.063
211.443
209.797
208.137
206.464
204.767
203.034
201.314
199.575
227.162
226.484
225.17
223.508
221.725
219.96
218.217
216.528
214.875
213.247
211.612
209.969
208.311
206.655
204.976
203.28
201.615
199.886
227.375
226.7
225.42
223.801
222.08
220.333
218.573
216.829
215.126
213.477
211.818
210.164
208.513
206.854
205.187
203.505
201.855
200.21
231.209
227.919
225.962
224.206
222.446
220.716
218.96
217.188
215.439
213.742
212.059
210.393
208.749
207.093
205.444
203.821
202.194
200.578
230.051
227.562
226.269
224.637
222.861
221.121
219.354
217.579
215.806
214.054
212.349
210.674
209.022
207.375
205.75
204.159
202.562
200.985
235.143
231.148
228.275
225.877
223.792
221.801
219.826
217.963
216.171
214.384
212.642
210.946
209.292
207.66
206.04
204.455
202.907
201.386
230.656
227.915
224.692
222.133
220.231
218.681
217.211
215.681
214.139
212.572
210.943
209.335
207.66
205.953
204.24
202.401
200.545
198.603
229.763
227.744
225.004
222.534
220.504
218.855
217.345
215.813
214.265
212.667
211.037
209.427
207.74
206.043
204.33
202.517
200.691
198.785
229.818
227.613
225.215
222.911
220.854
219.082
217.494
215.939
214.38
212.784
211.153
209.529
207.839
206.144
204.447
202.667
200.878
199.03
229.055
227.524
225.403
223.24
221.207
219.363
217.694
216.102
214.519
212.913
211.287
209.656
207.972
206.281
204.579
202.818
201.053
199.252
230.064
227.736
225.576
223.525
221.556
219.706
217.957
216.299
214.676
213.061
211.444
209.806
208.126
206.445
204.759
203.027
201.293
199.53
231.15
227.773
225.682
223.756
221.878
220.045
218.278
216.571
214.893
213.236
211.6
209.958
208.292
206.629
204.952
203.251
201.565
199.856
229.271
227.686
225.839
224.029
222.191
220.375
218.616
216.882
215.165
213.475
211.816
210.162
208.495
206.845
205.172
203.493
201.831
200.178
228.335
227.752
226.109
224.369
222.584
220.806
219.025
217.244
215.477
213.747
212.062
210.388
208.73
207.092
205.45
203.83
202.217
200.568
227.796
227.723
226.494
224.81
222.997
221.204
219.379
217.589
215.821
214.057
212.346
210.677
209.005
207.361
205.732
204.122
202.536
200.969
232.026
230.466
228.274
225.994
223.902
221.886
219.895
218.011
216.207
214.402
212.648
210.953
209.288
207.654
206.043
204.456
202.909
201.395
230.635
227.883
224.746
222.191
220.27
218.706
217.215
215.682
214.13
212.553
210.945
209.341
207.667
205.971
204.247
202.406
200.582
198.646
229.462
227.64
225.027
222.568
220.535
218.867
217.336
215.803
214.251
212.66
211.044
209.428
207.75
206.055
204.333
202.523
200.728
198.827
229.888
227.615
225.232
222.915
220.863
219.089
217.492
215.938
214.374
212.778
211.158
209.528
207.845
206.158
204.447
202.668
200.907
199.05
230.807
227.719
225.391
223.231
221.209
219.376
217.689
216.095
214.52
212.911
211.289
209.659
207.981
206.291
204.578
202.817
201.061
199.252
230.347
227.591
225.471
223.472
221.528
219.694
217.954
216.299
214.673
213.051
211.436
209.804
208.129
206.455
204.753
203.017
201.304
199.542
230.562
227.565
225.566
223.721
221.864
220.037