/*--------------------------------*- C++ -*----------------------------------*\
| =========                 |                                                 |
| \\      /  F ield         | OpenFOAM: The Open Source CFD Toolbox           |
|  \\    /   O peration     | Version:  3.0.1                                 |
|   \\  /    A nd           | Web:      www.OpenFOAM.org                      |
|    \\/     M anipulation  |                                                 |
\*---------------------------------------------------------------------------*/
FoamFile
{
    version     2.0;
    format      ascii;
    class       volScalarField;
    location    "0.1";
    object      p_mode_3;
}
// * * * * * * * * * * * * * * * * * * * * * * * * * * * * * * * * * * * * * //

dimensions      [0 0 0 0 0 0 0];

internalField   nonuniform List<scalar> 
244500
(
-15.0507
-7.30387
-5.23754
-5.93919
-6.88709
-7.66463
-8.23032
-8.67742
-8.98785
-9.27959
-9.48833
-9.57987
-9.79629
-9.92651
-10.0322
-10.224
-10.1468
-10.2539
-13.7916
-7.30272
-5.37944
-6.01855
-6.93143
-7.68648
-8.24326
-8.68578
-8.99368
-9.28407
-9.49668
-9.57957
-9.79619
-9.93178
-10.0292
-10.2289
-10.1578
-10.1854
-12.6546
-7.50402
-5.76084
-6.21678
-7.03994
-7.74797
-8.27865
-8.71025
-9.0074
-9.29449
-9.5074
-9.57888
-9.79792
-9.93705
-10.0244
-10.2405
-10.1734
-10.107
-10.5085
-7.65844
-6.20512
-6.46669
-7.19391
-7.85256
-8.34751
-8.75747
-9.0366
-9.3133
-9.52288
-9.58236
-9.80213
-9.93832
-10.0191
-10.2362
-10.1799
-10.0164
-8.94098
-7.799
-6.64157
-6.72555
-7.35859
-7.97896
-8.44472
-8.83102
-9.08685
-9.34629
-9.54614
-9.59483
-9.81008
-9.93526
-10.0098
-10.2213
-10.1688
-9.94174
-7.94089
-7.86867
-7.03642
-7.00881
-7.54181
-8.11606
-8.55184
-8.91603
-9.15165
-9.39017
-9.57752
-9.61974
-9.82284
-9.92564
-9.99382
-10.1916
-10.1315
-9.88742
-7.21918
-7.88943
-7.37897
-7.31202
-7.72649
-8.24035
-8.65911
-9.00876
-9.22466
-9.43179
-9.60482
-9.65037
-9.84088
-9.92401
-9.97847
-10.1585
-10.0682
-9.84381
-23.9074
-11.8672
-7.63608
-7.22565
-7.62841
-8.05577
-8.43009
-8.81303
-9.09315
-9.34443
-9.59733
-9.67942
-9.81547
-9.90923
-10.0485
-10.1406
-10.144
-9.63575
-22.6433
-11.8311
-7.75688
-7.29491
-7.67356
-8.07817
-8.44067
-8.82254
-9.10013
-9.34615
-9.60593
-9.68396
-9.81623
-9.91207
-10.049
-10.1506
-10.1484
-9.73911
-21.1394
-11.9437
-8.09484
-7.48267
-7.77579
-8.13823
-8.47263
-8.84674
-9.11478
-9.35364
-9.62014
-9.68903
-9.81888
-9.91567
-10.0495
-10.1615
-10.1532
-9.84117
-20.1913
-12.0494
-8.45839
-7.69927
-7.91067
-8.23451
-8.54212
-8.89615
-9.1443
-9.37252
-9.63935
-9.69634
-9.82151
-9.91706
-10.0473
-10.1696
-10.1581
-9.96248
-18.05
-12.0126
-8.84613
-7.96072
-8.07687
-8.36523
-8.64758
-8.97261
-9.18989
-9.40462
-9.66471
-9.71042
-9.82776
-9.91907
-10.0441
-10.1728
-10.1528
-10.0739
-15.8955
-11.8157
-9.15474
-8.20964
-8.23287
-8.4921
-8.76158
-9.05879
-9.24671
-9.44675
-9.69415
-9.73079
-9.83962
-9.92168
-10.0307
-10.1675
-10.131
-10.1643
-14.5563
-11.5966
-9.41628
-8.47774
-8.40855
-8.62994
-8.89619
-9.16607
-9.31884
-9.49461
-9.72185
-9.75144
-9.85166
-9.93354
-10.0264
-10.1597
-10.0963
-10.2129
-22.5854
-10.8735
-7.54258
-7.40767
-7.87826
-8.35029
-8.6982
-9.04618
-9.30486
-9.44652
-9.74377
-9.84611
-9.98018
-10.1213
-10.5067
-10.5431
-11.2599
-10.6681
-19.0481
-10.8183
-7.68947
-7.48835
-7.92215
-8.3734
-8.71018
-9.05309
-9.31642
-9.44783
-9.75003
-9.85583
-9.98158
-10.1214
-10.5122
-10.5516
-11.2512
-10.7826
-17.7669
-10.9696
-8.05462
-7.68603
-8.03191
-8.43547
-8.7413
-9.0749
-9.33567
-9.45098
-9.76148
-9.86499
-9.9809
-10.1201
-10.5216
-10.5594
-11.2455
-11.0325
-15.9193
-11.103
-8.47208
-7.92459
-8.18052
-8.53838
-8.80913
-9.12153
-9.3649
-9.46362
-9.7783
-9.87466
-9.97795
-10.1181
-10.5233
-10.5678
-11.2329
-11.2945
-14.0852
-11.2208
-8.92623
-8.2199
-8.36728
-8.66855
-8.91087
-9.19498
-9.40677
-9.49129
-9.8013
-9.88612
-9.97523
-10.1177
-10.5125
-10.5748
-11.2024
-11.5148
-13.3959
-11.3402
-9.32556
-8.50693
-8.55618
-8.80584
-9.02485
-9.27762
-9.4508
-9.53079
-9.8268
-9.89741
-9.97664
-10.1225
-10.4885
-10.5793
-11.1482
-11.644
-13.5635
-11.4219
-9.69059
-8.81298
-8.73606
-8.93183
-9.14184
-9.3719
-9.50765
-9.58185
-9.85315
-9.90384
-9.97978
-10.1299
-10.4502
-10.5789
-11.0639
-11.6744
-13.7644
-7.72769
-6.13583
-6.63105
-7.32078
-7.97313
-8.49865
-8.92073
-9.243
-9.43536
-9.68167
-9.83916
-10.1542
-10.3778
-10.8974
-11.1534
-12.1533
-11.8008
-12.2267
-7.8083
-6.30817
-6.72499
-7.36662
-7.99476
-8.51216
-8.92876
-9.25256
-9.43938
-9.68709
-9.84006
-10.1559
-10.3801
-10.9012
-11.1682
-12.1587
-11.7812
-10.807
-8.16912
-6.76021
-6.95346
-7.48207
-8.06369
-8.54915
-8.95141
-9.26898
-9.4472
-9.69607
-9.84098
-10.1585
-10.3784
-10.9062
-11.1707
-12.1579
-11.9683
-10.0816
-8.70103
-7.30942
-7.23227
-7.64474
-8.17648
-8.61822
-8.99687
-9.2981
-9.4631
-9.708
-9.84352
-10.159
-10.373
-10.8994
-11.1661
-12.1404
-12.2963
-9.92292
-9.26073
-7.85775
-7.5599
-7.85647
-8.32409
-8.7148
-9.06714
-9.34316
-9.49321
-9.72768
-9.85268
-10.1558
-10.3649
-10.8759
-11.1514
-12.0983
-12.6014
-11.1382
-9.82655
-8.3983
-7.9071
-8.08054
-8.48196
-8.82413
-9.14944
-9.39844
-9.53373
-9.75489
-9.87009
-10.1499
-10.3524
-10.8351
-11.1241
-12.0248
-12.7886
-11.8953
-10.3693
-8.90951
-8.26365
-8.28771
-8.60538
-8.92179
-9.23195
-9.46023
-9.58248
-9.78551
-9.88993
-10.1416
-10.336
-10.7799
-11.0882
-11.915
-12.8258
-11.0423
-6.30137
-5.29052
-6.21215
-7.16748
-7.88941
-8.44213
-8.83054
-9.06405
-9.272
-9.54809
-9.72896
-9.8775
-9.94204
-10.0714
-10.0761
-10.1573
-9.41727
-9.62473
-6.4427
-5.46861
-6.2968
-7.21347
-7.91419
-8.45713
-8.84312
-9.07164
-9.27342
-9.55186
-9.73436
-9.88274
-9.94474
-10.0768
-10.0808
-10.162
-9.51689
-8.07846
-6.71572
-5.87326
-6.49813
-7.32317
-7.97655
-8.49537
-8.8673
-9.08618
-9.27813
-9.56036
-9.74098
-9.88925
-9.94377
-10.0792
-10.0838
-10.1779
-9.66681
-7.80925
-7.18804
-6.38053
-6.77383
-7.49095
-8.08796
-8.5671
-8.91298
-9.11422
-9.29525
-9.57483
-9.75131
-9.89462
-9.94243
-10.0772
-10.093
-10.1912
-9.85761
-8.31157
-7.67531
-6.89234
-7.06817
-7.66688
-8.21549
-8.66359
-8.98244
-9.16291
-9.33093
-9.5964
-9.76567
-9.90149
-9.94283
-10.0738
-10.1088
-10.2018
-10.0518
-8.40221
-8.08769
-7.40018
-7.40716
-7.86677
-8.35187
-8.76236
-9.05591
-9.22585
-9.38392
-9.62714
-9.78569
-9.90928
-9.94498
-10.0702
-10.1256
-10.2058
-10.2043
-8.46306
-8.39736
-7.82578
-7.73141
-8.06718
-8.49812
-8.88708
-9.1597
-9.30654
-9.4447
-9.65345
-9.80125
-9.91648
-9.95447
-10.0755
-10.1412
-10.2052
-10.3098
-16.7489
-6.16832
-3.74119
-4.60124
-5.85557
-6.92403
-7.66831
-8.30323
-8.89017
-9.25743
-9.46568
-9.58907
-9.70757
-9.76339
-9.78367
-9.88584
-9.78199
-9.45232
-14.488
-6.036
-3.85626
-4.67899
-5.90326
-6.94858
-7.6816
-8.30745
-8.89814
-9.26601
-9.47185
-9.5936
-9.71135
-9.76806
-9.78387
-9.88818
-9.79235
-9.49384
-12.4746
-6.13802
-4.2259
-4.88641
-6.01591
-7.0127
-7.71503
-8.32833
-8.91801
-9.28183
-9.48164
-9.59805
-9.71535
-9.77139
-9.78023
-9.88785
-9.81801
-9.55104
-10.229
-6.269
-4.67803
-5.14313
-6.17432
-7.11901
-7.78531
-8.38006
-8.9559
-9.30669
-9.49645
-9.60569
-9.71941
-9.7731
-9.77574
-9.89048
-9.84129
-9.61838
-8.85268
-6.22426
-5.05269
-5.40792
-6.35844
-7.26502
-7.89991
-8.46732
-9.01153
-9.33749
-9.51742
-9.62001
-9.72685
-9.77593
-9.77355
-9.89438
-9.85742
-9.6883
-8.08204
-6.17038
-5.41453
-5.70263
-6.56709
-7.42432
-8.03586
-8.57264
-9.07195
-9.36988
-9.54467
-9.64102
-9.74106
-9.78143
-9.77199
-9.89837
-9.86075
-9.74496
-6.38111
-6.09962
-5.74668
-6.0115
-6.77021
-7.57794
-8.17705
-8.68973
-9.13416
-9.39857
-9.57188
-9.66324
-9.75892
-9.79567
-9.77643
-9.90145
-9.85343
-9.76403
-20.7197
-6.26894
-3.33802
-4.41179
-5.83779
-6.95585
-7.75515
-8.27258
-8.66668
-9.02061
-9.27375
-9.48467
-9.66335
-9.76319
-9.84858
-10.0453
-10.1
-10.1792
-17.5521
-6.01994
-3.43371
-4.48006
-5.87865
-6.97915
-7.76972
-8.28238
-8.67295
-9.02656
-9.27883
-9.48695
-9.66868
-9.76735
-9.8489
-10.0461
-10.1072
-10.1709
-13.9481
-5.78558
-3.72901
-4.66184
-5.97999
-7.04384
-7.80711
-8.3035
-8.68595
-9.03632
-9.28565
-9.49049
-9.67421
-9.76899
-9.84632
-10.0469
-10.1223
-10.1577
-9.20315
-5.49127
-4.10888
-4.89213
-6.12154
-7.14834
-7.87734
-8.34878
-8.71569
-9.05538
-9.29772
-9.49709
-9.68023
-9.7668
-9.84164
-10.0418
-10.1283
-10.1431
-5.67955
-5.19229
-4.47924
-5.14497
-6.29125
-7.28141
-7.974
-8.41972
-8.76822
-9.08948
-9.31959
-9.50838
-9.68735
-9.76408
-9.83887
-10.0319
-10.1217
-10.1308
-2.78154
-4.83204
-4.73705
-5.3782
-6.45185
-7.41673
-8.07677
-8.50208
-8.8395
-9.13603
-9.35464
-9.53117
-9.69751
-9.76089
-9.83283
-10.0177
-10.0975
-10.1136
-1.65037
-4.62249
-5.02063
-5.65676
-6.62521
-7.54067
-8.17983
-8.59418
-8.91842
-9.18601
-9.39202
-9.55596
-9.71096
-9.76781
-9.82989
-9.99212
-10.0561
-10.0732
-5.7007
-1.05991
-1.14208
-3.18398
-5.06084
-6.50367
-7.43543
-8.08334
-8.59463
-8.96933
-9.17483
-9.3325
-9.40172
-9.29983
-9.26181
-9.28279
-8.96903
-8.59038
-3.42282
-1.00916
-1.29165
-3.27682
-5.11631
-6.53262
-7.45558
-8.09147
-8.60149
-8.97714
-9.17988
-9.33733
-9.41023
-9.30198
-9.26024
-9.29037
-8.97934
-8.61023
-2.59356
-1.20948
-1.65834
-3.48276
-5.23516
-6.60397
-7.49879
-8.11151
-8.61845
-8.9912
-9.1891
-9.34339
-9.42113
-9.29967
-9.25801
-9.2977
-9.00121
-8.63942
-2.04196
-1.41788
-2.16274
-3.78253
-5.42075
-6.72495
-7.57516
-8.15776
-8.65208
-9.01437
-9.20375
-9.35415
-9.4317
-9.29711
-9.26083
-9.3075
-9.02415
-8.67853
0.590537
-1.49954
-2.63416
-4.08596
-5.61024
-6.85879
-7.67491
-8.23265
-8.7097
-9.05127
-9.23065
-9.37083
-9.44347
-9.29985
-9.26927
-9.31667
-9.04259
-8.73373
3.55995
-1.50544
-3.07674
-4.41282
-5.82121
-7.00252
-7.7845
-8.32493
-8.78184
-9.09465
-9.26751
-9.3965
-9.45796
-9.30901
-9.28661
-9.32461
-9.05877
-8.78052
4.9745
-1.54948
-3.51885
-4.79222
-6.04485
-7.14186
-7.89683
-8.43089
-8.86447
-9.14231
-9.30527
-9.42182
-9.47787
-9.34076
-9.31139
-9.33237
-9.08006
-8.84001
-5.84022
-1.22843
-1.48479
-3.55614
-5.33505
-6.68611
-7.5845
-8.14794
-8.59052
-9.03656
-9.19334
-9.54508
-9.8392
-9.84261
-10.0867
-10.7504
-10.7404
-11.3168
-3.2724
-1.24792
-1.65529
-3.6432
-5.38422
-6.71186
-7.60116
-8.15868
-8.59358
-9.04603
-9.1944
-9.54158
-9.85617
-9.84223
-10.0777
-10.766
-10.7737
-11.318
-1.50515
-1.56832
-2.11645
-3.87339
-5.50474
-6.78239
-7.64167
-8.1791
-8.60353
-9.06273
-9.19389
-9.54079
-9.87691
-9.83214
-10.0594
-10.7798
-10.7926
-11.3154
-1.05262
-1.99776
-2.68192
-4.17529
-5.68154
-6.89817
-7.7139
-8.22146
-8.63269
-9.08525
-9.19847
-9.54351
-9.89518
-9.80854
-10.04
-10.7785
-10.7805
-11.2598
0.523041
-2.41001
-3.26271
-4.50973
-5.88804
-7.04542
-7.81553
-8.29662
-8.69083
-9.11619
-9.21241
-9.55456
-9.90487
-9.77698
-10.0274
-10.75
-10.7347
-11.1598
0.152971
-2.91635
-3.85627
-4.87012
-6.0982
-7.18866
-7.91521
-8.38362
-8.76703
-9.15025
-9.23848
-9.57652
-9.90271
-9.74611
-10.0282
-10.6851
-10.6548
-11.0352
0.806183
-3.42643
-4.43351
-5.27139
-6.32525
-7.34163
-8.03125
-8.49383
-8.86178
-9.18744
-9.26791
-9.59962
-9.89187
-9.71219
-10.0408
-10.5997
-10.5529
-10.8856
-8.60303
-3.6318
-3.12551
-4.5812
-5.93827
-7.06059
-7.75148
-8.27954
-8.67814
-8.97998
-9.23162
-9.34124
-9.35783
-9.24298
-9.12775
-8.9962
-8.14936
-7.43618
-6.23301
-3.72015
-3.3035
-4.67406
-5.98966
-7.08987
-7.77012
-8.28671
-8.68698
-8.98328
-9.23767
-9.34788
-9.36379
-9.24546
-9.12753
-9.00847
-8.16434
-7.46173
-5.13844
-4.08978
-3.7349
-4.89012
-6.11018
-7.16284
-7.80955
-8.30742
-8.70445
-8.99246
-9.24844
-9.35611
-9.37199
-9.2447
-9.12795
-9.0194
-8.20071
-7.44697
-5.23913
-4.6048
-4.28261
-5.17707
-6.2885
-7.28154
-7.88094
-8.35344
-8.73874
-9.01287
-9.26761
-9.36777
-9.38345
-9.24457
-9.13548
-9.03506
-8.25658
-7.46443
-5.39619
-5.11863
-4.83036
-5.49782
-6.49452
-7.42215
-7.97467
-8.43042
-8.79446
-9.04734
-9.29611
-9.38351
-9.39939
-9.2504
-9.15221
-9.05282
-8.32279
-7.5268
-5.42798
-5.67748
-5.36093
-5.84204
-6.72928
-7.58814
-8.09421
-8.53142
-8.86659
-9.09505
-9.33083
-9.40838
-9.42426
-9.26646
-9.17514
-9.0682
-8.40019
-7.63011
-6.82865
-6.17766
-5.85288
-6.1938
-6.94401
-7.71077
-8.19081
-8.6372
-8.9413
-9.15071
-9.36478
-9.42536
-9.45397
-9.29335
-9.20791
-9.08452
-8.48395
-7.76581
-15.039
-7.2948
-5.23777
-5.91551
-6.86805
-7.65375
-8.19382
-8.64484
-8.95065
-9.22005
-9.42109
-9.48512
-9.67246
-9.76498
-9.80341
-9.90442
-9.7268
-9.64282
-13.78
-7.29464
-5.3809
-5.9957
-6.91172
-7.67696
-8.20627
-8.65351
-8.95741
-9.22419
-9.42978
-9.48475
-9.67184
-9.77053
-9.80098
-9.90785
-9.73753
-9.59078
-12.6412
-7.49677
-5.76361
-6.19392
-7.01973
-7.73896
-8.2411
-8.67785
-8.97168
-9.23319
-9.44125
-9.48472
-9.67425
-9.77734
-9.79755
-9.91578
-9.75918
-9.54614
-10.4959
-7.65338
-6.20875
-6.44452
-7.17515
-7.84469
-8.30922
-8.72646
-9.0015
-9.25293
-9.45854
-9.48909
-9.6788
-9.7816
-9.79464
-9.9165
-9.78028
-9.50547
-8.92908
-7.79637
-6.64505
-6.70367
-7.3434
-7.97021
-8.40677
-8.80246
-9.05212
-9.28664
-9.48436
-9.50232
-9.68811
-9.78262
-9.78987
-9.91304
-9.79254
-9.48512
-7.92753
-7.87021
-7.03927
-6.98854
-7.52956
-8.10456
-8.51466
-8.89006
-9.11493
-9.33192
-9.51836
-9.52834
-9.70467
-9.77861
-9.78161
-9.90228
-9.7867
-9.4864
-7.19988
-7.89396
-7.38365
-7.29431
-7.71673
-8.22578
-8.62444
-8.98586
-9.18593
-9.37742
-9.54865
-9.56019
-9.72588
-9.7847
-9.77563
-9.89017
-9.76031
-9.49968
-23.8999
-11.8531
-7.61958
-7.20596
-7.60484
-8.03537
-8.40238
-8.77312
-9.05924
-9.28998
-9.52964
-9.60632
-9.70753
-9.77982
-9.8847
-9.91349
-9.89052
-9.25149
-22.6381
-11.8175
-7.73997
-7.2756
-7.65005
-8.05775
-8.41364
-8.78194
-9.06584
-9.29285
-9.53712
-9.61178
-9.70875
-9.78279
-9.88682
-9.92147
-9.89415
-9.36189
-21.1372
-11.93
-8.07736
-7.46297
-7.75194
-8.11741
-8.44583
-8.80507
-9.08189
-9.30056
-9.5509
-9.61858
-9.71102
-9.7853
-9.88762
-9.93082
-9.90368
-9.48308
-20.1945
-12.0354
-8.4393
-7.67902
-7.88737
-8.21439
-8.51545
-8.85475
-9.1114
-9.32014
-9.56992
-9.62726
-9.71352
-9.78916
-9.88761
-9.93925
-9.9161
-9.6318
-18.0619
-11.9966
-8.82472
-7.94076
-8.05368
-8.34462
-8.62043
-8.93225
-9.15868
-9.35254
-9.59608
-9.64365
-9.72006
-9.7938
-9.88517
-9.94622
-9.92252
-9.77626
-15.9196
-11.7967
-9.13307
-8.19048
-8.21131
-8.46974
-8.73408
-9.0198
-9.21628
-9.39502
-9.62737
-9.66605
-9.73377
-9.80017
-9.8743
-9.9489
-9.9147
-9.89937
-14.5911
-11.5771
-9.39233
-8.45916
-8.38812
-8.60727
-8.86813
-9.12989
-9.28815
-9.44245
-9.65817
-9.68799
-9.74847
-9.81706
-9.87054
-9.9541
-9.89538
-9.97305
-22.5507
-10.8546
-7.52332
-7.3823
-7.85628
-8.33242
-8.6723
-9.00944
-9.27144
-9.40167
-9.68044
-9.77883
-9.87441
-10.0027
-10.3616
-10.3017
-11.0189
-10.357
-19.0118
-10.7983
-7.66971
-7.46257
-7.90034
-8.35558
-8.68395
-9.0158
-9.28288
-9.40329
-9.68616
-9.7898
-9.87511
-10.0022
-10.3698
-10.3073
-11.0067
-10.484
-17.7275
-10.9486
-8.03546
-7.65985
-8.00975
-8.41804
-8.71482
-9.03691
-9.30227
-9.40714
-9.69706
-9.80036
-9.87325
-10.0006
-10.384
-10.3114
-11.0043
-10.7539
-15.876
-11.0828
-8.45288
-7.89723
-8.15993
-8.52091
-8.78342
-9.08369
-9.332
-9.42066
-9.71372
-9.81167
-9.86932
-9.99941
-10.3904
-10.3183
-10.9966
-11.0417
-14.0368
-11.2015
-8.90634
-8.19276
-8.34658
-8.65077
-8.88434
-9.15785
-9.37443
-9.44927
-9.73759
-9.82488
-9.86747
-10.002
-10.3844
-10.3277
-10.9748
-11.2883
-13.3394
-11.3183
-9.30298
-8.48042
-8.5358
-8.78781
-8.99793
-9.24153
-9.41913
-9.48767
-9.76515
-9.83879
-9.8705
-10.0116
-10.3654
-10.3383
-10.9344
-11.4407
-13.5006
-11.3951
-9.66762
-8.7864
-8.71746
-8.91235
-9.11497
-9.33675
-9.4752
-9.53981
-9.79463
-9.84678
-9.87642
-10.025
-10.3299
-10.3497
-10.8672
-11.4894
-13.7326
-7.70193
-6.12505
-6.61743
-7.30589
-7.95895
-8.47664
-8.89084
-9.22076
-9.40575
-9.63709
-9.80685
-10.1044
-10.3172
-10.8506
-11.0935
-12.0999
-11.7986
-12.1942
-7.78477
-6.29832
-6.71148
-7.35064
-7.98094
-8.49055
-8.89879
-9.23028
-9.41039
-9.6418
-9.80784
-10.1065
-10.3176
-10.8554
-11.1083
-12.104
-11.7746
-10.7762
-8.14768
-6.74979
-6.93809
-7.46608
-8.0501
-8.52778
-8.92066
-9.2473
-9.41936
-9.64988
-9.80903
-10.1106
-10.3139
-10.8624
-11.1116
-12.1013
-11.9561
-10.0506
-8.68144
-7.29752
-7.21628
-7.62821
-8.16281
-8.59763
-8.96598
-9.27654
-9.43566
-9.66125
-9.81297
-10.1118
-10.3085
-10.8571
-11.1066
-12.0831
-12.2773
-9.89118
-9.24358
-7.84517
-7.5416
-7.84179
-8.30926
-8.6937
-9.03689
-9.32281
-9.46581
-9.68104
-9.82401
-10.1085
-10.3008
-10.8353
-11.0927
-12.0402
-12.5769
-11.1047
-9.81333
-8.38502
-7.88867
-8.06669
-8.46617
-8.80317
-9.12042
-9.37797
-9.50638
-9.70924
-9.84146
-10.103
-10.2904
-10.7962
-11.0663
-11.9662
-12.7573
-11.8657
-10.356
-8.89345
-8.24482
-8.27417
-8.58841
-8.90127
-9.20461
-9.43894
-9.55497
-9.74141
-9.86134
-10.0941
-10.2774
-10.7413
-11.0299
-11.8581
-12.7897
-11.0142
-6.27902
-5.27212
-6.19438
-7.15113
-7.87869
-8.42903
-8.81357
-9.05014
-9.25076
-9.52715
-9.70318
-9.84272
-9.9132
-10.0185
-10.0186
-10.1063
-9.34243
-9.59592
-6.42035
-5.45056
-6.27966
-7.19737
-7.90364
-8.44495
-8.82568
-9.05802
-9.25145
-9.53077
-9.70818
-9.84721
-9.91633
-10.0238
-10.0222
-10.1122
-9.44372
-8.04578
-6.69228
-5.85483
-6.48151
-7.30819
-7.96657
-8.48269
-8.85031
-9.07237
-9.25678
-9.53921
-9.71527
-9.8531
-9.91754
-10.0262
-10.0232
-10.1301
-9.59644
-7.77219
-7.16407
-6.3614
-6.75805
-7.47799
-8.07789
-8.55486
-8.89595
-9.10069
-9.27343
-9.5535
-9.72656
-9.85799
-9.91752
-10.025
-10.0321
-10.1471
-9.79103
-8.27067
-7.64849
-6.87259
-7.05379
-7.65464
-8.20558
-8.65129
-8.96551
-9.14914
-9.30919
-9.57619
-9.74038
-9.86474
-9.91991
-10.0227
-10.0488
-10.1597
-9.98808
-8.35952
-8.05867
-7.37949
-7.39365
-7.85534
-8.34128
-8.7495
-9.04042
-9.21152
-9.36203
-9.60733
-9.7605
-9.87349
-9.92397
-10.0203
-10.0684
-10.1661
-10.1477
-8.41493
-8.36767
-7.80424
-7.71878
-8.05665
-8.48762
-8.87428
-9.14466
-9.29317
-9.42415
-9.63519
-9.77724
-9.88255
-9.93436
-10.0293
-10.0874
-10.1681
-10.2628
-16.7394
-6.15529
-3.73341
-4.59765
-5.84372
-6.91527
-7.66828
-8.29298
-8.89018
-9.25251
-9.45653
-9.59318
-9.70432
-9.75562
-9.79181
-9.89062
-9.78099
-9.48744
-14.4782
-6.02339
-3.84772
-4.67563
-5.89082
-6.9406
-7.68153
-8.29681
-8.89761
-9.26186
-9.46158
-9.59762
-9.7087
-9.76022
-9.7923
-9.89408
-9.79002
-9.53043
-12.4668
-6.12467
-4.21645
-4.88288
-6.00206
-7.00407
-7.71559
-8.31692
-8.91752
-9.27824
-9.47082
-9.60325
-9.71231
-9.76246
-9.78922
-9.89365
-9.81399
-9.58822
-10.2233
-6.25653
-4.66883
-5.13971
-6.16021
-7.11085
-7.78632
-8.36895
-8.95718
-9.30266
-9.48467
-9.61158
-9.71579
-9.76308
-9.78546
-9.89626
-9.8359
-9.65851
-8.84573
-6.21186
-5.04464
-5.40408
-6.34366
-7.25766
-7.90118
-8.45568
-9.01342
-9.33279
-9.50658
-9.62617
-9.72308
-9.76514
-9.7831
-9.90076
-9.85033
-9.72928
-8.07174
-6.15474
-5.40802
-5.6982
-6.55189
-7.41788
-8.03589
-8.56164
-9.0742
-9.36425
-9.53482
-9.64764
-9.73585
-9.77197
-9.78109
-9.90422
-9.85443
-9.78498
-6.36767
-6.08371
-5.73981
-6.00624
-6.7553
-7.5725
-8.17662
-8.67986
-9.1362
-9.39199
-9.56429
-9.66985
-9.75165
-9.78829
-9.78461
-9.90649
-9.84894
-9.8041
-20.7273
-6.26108
-3.32489
-4.42458
-5.83331
-6.9595
-7.77279
-8.26781
-8.67368
-9.04144
-9.27865
-9.50186
-9.69155
-9.77831
-9.87939
-10.0754
-10.1287
-10.2082
-17.5591
-6.01065
-3.41854
-4.49438
-5.87446
-6.9807
-7.78828
-8.2773
-8.67855
-9.048
-9.28364
-9.50401
-9.69754
-9.78243
-9.87989
-10.0771
-10.1356
-10.2005
-13.9547
-5.77483
-3.71837
-4.67775
-5.97668
-7.04505
-7.8267
-8.29791
-8.69147
-9.05934
-9.28919
-9.50748
-9.70391
-9.7829
-9.87726
-10.0773
-10.1504
-10.1873
-9.20921
-5.47733
-4.1013
-4.90853
-6.11681
-7.15024
-7.89728
-8.34221
-8.72046
-9.07786
-9.30044
-9.51343
-9.711
-9.78006
-9.87229
-10.072
-10.1562
-10.1736
-5.6865
-5.17634
-4.47447
-5.16232
-6.28524
-7.28479
-7.99272
-8.41214
-8.77445
-9.11116
-9.322
-9.52599
-9.71754
-9.77651
-9.8695
-10.0621
-10.1504
-10.1624
-2.78815
-4.81833
-4.73586
-5.39434
-6.44474
-7.42233
-8.09258
-8.49498
-8.84684
-9.15485
-9.3574
-9.54889
-9.72708
-9.77377
-9.86416
-10.0464
-10.1259
-10.147
-1.65789
-4.60946
-5.02245
-5.67177
-6.61792
-7.54773
-8.19123
-8.58897
-8.92682
-9.202
-9.3966
-9.57312
-9.73733
-9.78234
-9.85965
-10.019
-10.0852
-10.1058
-5.70865
-1.05284
-1.15877
-3.20463
-5.05372
-6.52049
-7.45256
-8.09046
-8.61932
-8.98979
-9.2047
-9.37141
-9.44506
-9.35631
-9.32839
-9.34487
-9.03433
-8.65537
-3.42885
-1.00237
-1.30922
-3.29843
-5.10894
-6.55005
-7.47446
-8.09741
-8.62637
-8.99889
-9.20908
-9.37694
-9.45359
-9.35929
-9.32798
-9.35255
-9.04403
-8.67769
-2.59856
-1.2033
-1.67539
-3.50584
-5.22703
-6.62215
-7.51789
-8.11579
-8.64409
-9.0121
-9.21699
-9.38319
-9.46262
-9.35732
-9.32527
-9.36109
-9.06567
-8.7093
-2.04459
-1.41224
-2.18331
-3.80485
-5.41271
-6.74508
-7.59209
-8.16094
-8.67917
-9.03456
-9.23218
-9.39342
-9.47156
-9.35442
-9.3278
-9.36847
-9.08755
-8.75019
0.591188
-1.49607
-2.65807
-4.10562
-5.60298
-6.88041
-7.68866
-8.23693
-8.73686
-9.06917
-9.25942
-9.4087
-9.48189
-9.35705
-9.33551
-9.37655
-9.10512
-8.80579
3.55328
-1.5061
-3.10354
-4.4289
-5.81697
-7.0245
-7.79378
-8.33096
-8.8069
-9.11159
-9.29768
-9.43213
-9.49555
-9.36559
-9.35021
-9.38266
-9.12069
-8.84865
4.96099
-1.56083
-3.54953
-4.80683
-6.04502
-7.16281
-7.90368
-8.43908
-8.88616
-9.15736
-9.33696
-9.45504
-9.51664
-9.39651
-9.36979
-9.38891
-9.14146
-8.90613
-5.83911
-1.23021
-1.4939
-3.5778
-5.33285
-6.70708
-7.62546
-8.14943
-8.62612
-9.0953
-9.21826
-9.61458
-9.92976
-9.91648
-10.2028
-10.8799
-10.8772
-11.5088
-3.27099
-1.24803
-1.66412
-3.66568
-5.38129
-6.73214
-7.64483
-8.15876
-8.62733
-9.10731
-9.21742
-9.61011
-9.94975
-9.9145
-10.1926
-10.8967
-10.9099
-11.5142
-1.50464
-1.56679
-2.12703
-3.89738
-5.50028
-6.80246
-7.68806
-8.17649
-8.63736
-9.12795
-9.21483
-9.60858
-9.97354
-9.90178
-10.1741
-10.9121
-10.9253
-11.5143
-1.05545
-1.99713
-2.69596
-4.19814
-5.67591
-6.92039
-7.76073
-8.21662
-8.66687
-9.15166
-9.21546
-9.61113
-9.99437
-9.87578
-10.1539
-10.9112
-10.9093
-11.4576
0.518475
-2.41306
-3.28019
-4.52923
-5.88212
-7.0705
-7.86126
-8.28988
-8.72685
-9.18243
-9.22889
-9.62183
-10.0049
-9.84305
-10.1384
-10.8821
-10.8592
-11.3518
0.149
-2.92054
-3.87537
-4.88595
-6.09597
-7.21703
-7.95485
-8.37791
-8.80601
-9.21257
-9.25502
-9.64434
-10.0003
-9.81203
-10.1357
-10.8157
-10.7747
-11.2211
0.799338
-3.4298
-4.4515
-5.28327
-6.32635
-7.37192
-8.06451
-8.49
-8.90325
-9.2438
-9.28707
-9.66627
-9.98414
-9.7831
-10.1428
-10.729
-10.6685
-11.0569
-8.60386
-3.63772
-3.13403
-4.59069
-5.96909
-7.06353
-7.77598
-8.31183
-8.69611
-9.04239
-9.29224
-9.41012
-9.46718
-9.37774
-9.29927
-9.1938
-8.41624
-7.87938
-6.23488
-3.72621
-3.31254
-4.68307
-6.02116
-7.0932
-7.79358
-8.32167
-8.70369
-9.04637
-9.2994
-9.41497
-9.47363
-9.3804
-9.29892
-9.20473
-8.42863
-7.89761
-5.13651
-4.09741
-3.7421
-4.89804
-6.14227
-7.16489
-7.83202
-8.34335
-8.71829
-9.0575
-9.31166
-9.4216
-9.48261
-9.37961
-9.3003
-9.21306
-8.45612
-7.86811
-5.23707
-4.61056
-4.2883
-5.18364
-6.32022
-7.28097
-7.90408
-8.38932
-8.75034
-9.07854
-9.3299
-9.43228
-9.4937
-9.3781
-9.30575
-9.22247
-8.49869
-7.86572
-5.39597
-5.12034
-4.83286
-5.50557
-6.52479
-7.41935
-7.9992
-8.46301
-8.8045
-9.11444
-9.35724
-9.4485
-9.50964
-9.38039
-9.31829
-9.22963
-8.54972
-7.90247
-5.42097
-5.67575
-5.36131
-5.8509
-6.757
-7.58547
-8.11956
-8.56005
-8.87703
-9.16214
-9.38935
-9.47243
-9.53152
-9.39159
-9.33547
-9.23272
-8.60826
-7.97025
-6.81134
-6.16808
-5.85307
-6.20327
-6.96723
-7.70919
-8.21567
-8.65913
-8.95584
-9.21668
-9.42027
-9.4907
-9.55779
-9.41409
-9.35818
-9.23486
-8.66986
-8.06734
-7.10782
-7.95191
-7.81114
-7.72565
-7.97967
-8.38792
-8.78322
-9.12524
-9.34717
-9.51205
-9.65634
-9.68699
-9.82328
-9.8955
-9.93426
-10.08
-9.97736
-9.78042
-7.4236
-8.07403
-8.28308
-8.25779
-8.39608
-8.67046
-8.99099
-9.27627
-9.45368
-9.58444
-9.72751
-9.77552
-9.8751
-9.90364
-9.90631
-9.98041
-9.83458
-9.74496
-3.67143
-7.93164
-8.73415
-8.81973
-8.81264
-8.92889
-9.19723
-9.47972
-9.61694
-9.70449
-9.82006
-9.82098
-9.83156
-9.85824
-9.8622
-9.88289
-9.7264
-9.61114
-5.18774
-8.35839
-9.26766
-9.42725
-9.37215
-9.42186
-9.57021
-9.72659
-9.78931
-9.8325
-9.92693
-9.93228
-9.89954
-9.85381
-9.82373
-9.71916
-9.55702
-9.46425
-6.54223
-8.97405
-9.82244
-10.0246
-9.92987
-9.90161
-9.92115
-9.99687
-9.99214
-9.99249
-10.0418
-9.99168
-9.90016
-9.83569
-9.79099
-9.62795
-9.43906
-9.33714
-7.83973
-10.128
-10.5645
-10.6492
-10.5807
-10.5209
-10.4626
-10.3805
-10.2657
-10.2264
-10.1921
-10.1369
-10.0017
-9.8548
-9.77056
-9.52993
-9.24087
-9.08273
-9.89893
-10.9964
-11.0955
-11.2583
-11.1961
-11.063
-10.9332
-10.7431
-10.5556
-10.4757
-10.3574
-10.1886
-10.0181
-9.84793
-9.71359
-9.45802
-9.15545
-8.83809
-7.10413
-10.3156
-11.3139
-11.7197
-11.6989
-11.6484
-11.5628
-11.3091
-11.0033
-10.8359
-10.6073
-10.3682
-10.1656
-9.90159
-9.65373
-9.38578
-9.0235
-8.67167
-14.8501
-13.9046
-13.48
-13.1751
-12.8369
-12.4918
-12.1233
-11.7398
-11.4193
-11.1413
-10.8062
-10.5221
-10.2416
-9.95475
-9.69129
-9.34747
-9.04369
-8.68286
-15.9028
-15.2383
-14.4505
-13.9178
-13.6758
-13.2815
-12.7304
-12.3309
-11.927
-11.5226
-11.1298
-10.7696
-10.421
-10.0923
-9.78578
-9.39254
-9.03836
-8.67968
-12.2533
-11.2769
-9.72825
-8.87036
-8.65619
-8.79544
-9.03726
-9.28051
-9.415
-9.5742
-9.76616
-9.78409
-9.85218
-9.91484
-9.98549
-10.1252
-10.0387
-10.2183
-8.33927
-10.6464
-10.0751
-9.36922
-9.01121
-9.0306
-9.24396
-9.44997
-9.52655
-9.65258
-9.81857
-9.83235
-9.88506
-9.93578
-9.98313
-10.053
-9.97305
-10.1114
-10.5329
-10.8306
-10.5305
-9.93419
-9.5193
-9.37444
-9.4953
-9.66948
-9.7119
-9.79997
-9.91115
-9.89202
-9.88328
-9.91487
-9.96186
-9.94971
-9.86694
-9.92798
-11.6955
-11.3968
-11.1045
-10.522
-10.0619
-9.846
-9.82203
-9.87006
-9.88594
-9.94778
-9.99866
-9.96547
-9.91816
-9.92076
-9.93665
-9.82234
-9.67633
-9.71201
-12.4344
-12.0027
-11.6646
-11.1498
-10.6585
-10.3391
-10.1995
-10.1627
-10.1052
-10.1225
-10.1071
-10.047
-9.97439
-9.88372
-9.87834
-9.69098
-9.51314
-9.49079
-17.9104
-13.5969
-12.2482
-11.6712
-11.2233
-10.9088
-10.7073
-10.5456
-10.3925
-10.304
-10.2183
-10.1269
-10.0311
-9.88386
-9.82424
-9.61476
-9.29928
-9.20779
-11.1663
-11.7974
-12.0967
-12.0845
-11.8499
-11.5127
-11.2359
-10.9553
-10.7021
-10.5895
-10.4043
-10.2245
-10.1079
-9.91415
-9.77516
-9.53713
-9.16975
-8.96036
-2.22056
-8.51343
-11.3435
-12.2016
-12.3331
-12.0981
-11.811
-11.462
-11.1189
-10.9128
-10.6245
-10.3674
-10.1906
-9.94386
-9.69103
-9.43277
-9.09604
-8.77676
2.25745
-9.10685
-12.2359
-13.096
-13.1379
-12.844
-12.4477
-11.9744
-11.5605
-11.2584
-10.8699
-10.5727
-10.3179
-10.0305
-9.7338
-9.38075
-9.05819
-8.72117
-5.79721
-11.0099
-13.3066
-14.043
-14.0211
-13.5016
-12.975
-12.5013
-11.9905
-11.5736
-11.1836
-10.802
-10.4302
-10.0889
-9.7859
-9.3949
-9.06494
-8.73084
-12.4415
-11.4143
-10.1426
-9.26277
-9.0162
-9.1147
-9.28385
-9.47318
-9.57715
-9.66226
-9.89713
-9.92795
-9.98924
-10.146
-10.3866
-10.554
-10.9107
-11.5724
-13.4574
-11.8504
-10.7679
-9.82714
-9.37935
-9.3486
-9.47889
-9.63239
-9.68237
-9.75368
-9.93104
-9.9449
-9.98528
-10.1475
-10.3231
-10.4639
-10.7356
-11.2917
-12.3593
-12.3331
-11.3502
-10.4333
-9.89034
-9.67459
-9.71098
-9.83052
-9.83958
-9.89984
-10.0513
-10.0382
-10.0196
-10.1429
-10.2678
-10.3269
-10.4963
-10.8529
-18.1907
-13.5249
-11.9891
-10.9909
-10.415
-10.1208
-10.0406
-10.0436
-9.9962
-10.0299
-10.0996
-10.107
-10.0788
-10.1326
-10.1975
-10.1631
-10.3045
-10.4271
-16.396
-13.9312
-12.6978
-11.701
-11.0132
-10.619
-10.4239
-10.3327
-10.2201
-10.2166
-10.2022
-10.1908
-10.095
-10.0714
-10.0921
-9.89736
-9.954
-10.0153
-20.598
-15.6861
-13.5512
-12.3904
-11.612
-11.1754
-10.8896
-10.6741
-10.4761
-10.3977
-10.3089
-10.2512
-10.1753
-10.0151
-9.98894
-9.82764
-9.67094
-9.65383
-25.0942
-16.9384
-14.3305
-13.0932
-12.259
-11.7665
-11.3807
-11.0554
-10.821
-10.6884
-10.4912
-10.3182
-10.2053
-10.0151
-9.90372
-9.65592
-9.43266
-9.29426
-16.636
-15.5952
-14.6554
-13.76
-13.028
-12.4673
-12.0007
-11.5804
-11.2344
-10.984
-10.7076
-10.4659
-10.2875
-10.0213
-9.80742
-9.58056
-9.2258
-8.96953
-23.6573
-19.2192
-16.4089
-14.9707
-13.9822
-13.1853
-12.5919
-12.0747
-11.6394
-11.3357
-10.9632
-10.6253
-10.3767
-10.0547
-9.79117
-9.48622
-9.12814
-8.86263
-28.8727
-19.6071
-16.749
-15.6164
-14.7761
-14.1298
-13.4045
-12.699
-12.0532
-11.6883
-11.3052
-10.8464
-10.4856
-10.1411
-9.84752
-9.4855
-9.11507
-8.7523
-13.9492
-11.0997
-9.55177
-8.77312
-8.61506
-8.81726
-9.07236
-9.35402
-9.5526
-9.66076
-9.83547
-9.91685
-10.1275
-10.3054
-10.6883
-11.0235
-11.7132
-12.7408
-14.0237
-11.8216
-10.3117
-9.42248
-9.03621
-9.08637
-9.27086
-9.51067
-9.66194
-9.76132
-9.9053
-9.9482
-10.1175
-10.2753
-10.5556
-10.9112
-11.383
-12.2308
-12.4425
-12.3816
-11.1032
-10.1585
-9.60059
-9.47384
-9.53988
-9.72945
-9.82214
-9.88086
-10.0124
-10.001
-10.1197
-10.242
-10.451
-10.7267
-11.0438
-11.6913
-21.2726
-14.0166
-11.9188
-10.8907
-10.2045
-9.97448
-9.88888
-9.93156
-9.97654
-9.98771
-10.1002
-10.0889
-10.1343
-10.2496
-10.3424
-10.4549
-10.7132
-10.9767
-13.06
-13.0496
-12.3508
-11.5764
-10.8889
-10.5375
-10.3532
-10.2746
-10.2337
-10.182
-10.2138
-10.1799
-10.1085
-10.1596
-10.2001
-10.1862
-10.3076
-10.3721
-11.1745
-13.1645
-12.9969
-12.2696
-11.5876
-11.1762
-10.8717
-10.6425
-10.4846
-10.374
-10.3033
-10.2669
-10.1615
-10.0829
-10.0773
-9.93095
-9.94018
-9.93004
-12.4223
-14.0383
-13.6596
-12.9827
-12.3724
-11.9234
-11.5144
-11.153
-10.8806
-10.6976
-10.5052
-10.3492
-10.1903
-10.1005
-9.96623
-9.71233
-9.563
-9.43118
-15.9213
-16.2682
-15.4884
-14.3674
-13.4233
-12.6925
-12.1636
-11.7294
-11.3238
-11.0174
-10.7078
-10.4893
-10.2546
-10.0133
-9.85003
-9.55282
-9.3058
-9.12235
-29.0465
-20.0688
-17.0581
-15.5118
-14.471
-13.5985
-12.9379
-12.375
-11.8408
-11.388
-10.9608
-10.6742
-10.4211
-10.0687
-9.83284
-9.49207
-9.13915
-8.90171
-17.9826
-18.7519
-17.8672
-16.562
-15.5383
-14.4805
-13.573
-12.828
-12.206
-11.7712
-11.2597
-10.8213
-10.5106
-10.1487
-9.8555
-9.49415
-9.13119
-8.84416
-8.0272
-8.75189
-8.40734
-8.22323
-8.36955
-8.67897
-9.0046
-9.26282
-9.41324
-9.54195
-9.71124
-9.82888
-9.91054
-9.94564
-10.065
-10.1272
-10.1774
-10.3533
-7.24621
-9.22136
-9.07895
-8.83018
-8.78094
-8.963
-9.21701
-9.4376
-9.55
-9.64399
-9.77914
-9.89045
-9.94885
-9.96596
-10.0744
-10.1044
-10.1457
-10.3324
-10.2943
-10.4114