/*--------------------------------*- C++ -*----------------------------------*\
| =========                 |                                                 |
| \\      /  F ield         | OpenFOAM: The Open Source CFD Toolbox           |
|  \\    /   O peration     | Version:  3.0.1                                 |
|   \\  /    A nd           | Web:      www.OpenFOAM.org                      |
|    \\/     M anipulation  |                                                 |
\*---------------------------------------------------------------------------*/
FoamFile
{
    version     2.0;
    format      ascii;
    class       volScalarField;
    location    "0.1";
    object      p_mode_1;
}
// * * * * * * * * * * * * * * * * * * * * * * * * * * * * * * * * * * * * * //

dimensions      [0 0 0 0 0 0 0];

internalField   nonuniform List<scalar> 
244500
(
-256.33
-180.893
-154.235
-149.852
-149.357
-148.84
-147.857
-146.574
-145.041
-143.542
-141.959
-140.314
-138.585
-136.86
-134.84
-132.803
-130.469
-127.348
-236.256
-180.052
-155.001
-150.266
-149.586
-148.935
-147.897
-146.597
-145.055
-143.551
-141.971
-140.322
-138.594
-136.87
-134.859
-132.799
-130.514
-127.605
-224.315
-181.108
-157.434
-151.445
-150.174
-149.241
-148.046
-146.672
-145.096
-143.581
-142
-140.341
-138.613
-136.886
-134.888
-132.795
-130.653
-127.933
-214.703
-182.1
-160.199
-152.89
-151.005
-149.784
-148.389
-146.883
-145.228
-143.677
-142.073
-140.389
-138.657
-136.918
-134.938
-132.827
-130.818
-128.338
-207.053
-182.526
-162.67
-154.351
-151.876
-150.443
-148.895
-147.242
-145.484
-143.869
-142.22
-140.496
-138.75
-136.986
-135.025
-132.912
-131.003
-128.767
-200.813
-182.349
-164.752
-155.822
-152.705
-151.057
-149.427
-147.678
-145.83
-144.141
-142.436
-140.664
-138.896
-137.099
-135.155
-133.058
-131.205
-129.176
-194.315
-181.558
-166.321
-157.235
-153.477
-151.597
-149.924
-148.124
-146.21
-144.452
-142.685
-140.864
-139.072
-137.245
-135.319
-133.259
-131.43
-129.53
-268.144
-184.04
-155.082
-149.965
-149.18
-148.636
-147.694
-146.468
-144.983
-143.443
-141.791
-140.104
-138.333
-136.493
-134.38
-132.199
-129.589
-125.931
-247.997
-183.195
-155.857
-150.38
-149.402
-148.726
-147.732
-146.491
-144.998
-143.455
-141.803
-140.111
-138.344
-136.502
-134.397
-132.198
-129.646
-126.193
-234.253
-184.052
-158.267
-151.544
-149.983
-149.03
-147.88
-146.564
-145.043
-143.486
-141.828
-140.129
-138.363
-136.517
-134.426
-132.204
-129.805
-126.557
-224.122
-184.79
-160.943
-152.946
-150.803
-149.577
-148.225
-146.774
-145.181
-143.583
-141.899
-140.179
-138.411
-136.551
-134.485
-132.25
-129.997
-127.015
-215.667
-184.938
-163.318
-154.373
-151.672
-150.241
-148.728
-147.132
-145.439
-143.776
-142.05
-140.291
-138.512
-136.625
-134.586
-132.358
-130.217
-127.517
-208.927
-184.511
-165.256
-155.782
-152.5
-150.875
-149.27
-147.57
-145.786
-144.047
-142.272
-140.462
-138.663
-136.745
-134.731
-132.538
-130.46
-128.021
-202.078
-183.416
-166.716
-157.17
-153.281
-151.423
-149.762
-148.016
-146.177
-144.371
-142.544
-140.678
-138.848
-136.904
-134.905
-132.769
-130.728
-128.5
-264.698
-183.457
-155.003
-150.016
-149.29
-148.75
-147.828
-146.526
-145.044
-143.472
-141.723
-140.041
-138.387
-136.554
-134.566
-132.525
-130.226
-126.834
-243.171
-182.442
-155.754
-150.428
-149.518
-148.84
-147.868
-146.547
-145.059
-143.489
-141.734
-140.043
-138.4
-136.566
-134.577
-132.529
-130.28
-126.988
-229.17
-183.367
-158.189
-151.605
-150.103
-149.145
-148.018
-146.619
-145.103
-143.525
-141.756
-140.055
-138.423
-136.583
-134.6
-132.54
-130.426
-127.295
-220.088
-184.308
-160.911
-153.02
-150.92
-149.688
-148.361
-146.825
-145.239
-143.623
-141.823
-140.104
-138.475
-136.616
-134.652
-132.583
-130.602
-127.7
-212.624
-184.714
-163.39
-154.479
-151.787
-150.343
-148.853
-147.175
-145.495
-143.812
-141.971
-140.218
-138.576
-136.689
-134.747
-132.679
-130.793
-128.171
-205.383
-184.476
-165.427
-155.916
-152.604
-150.966
-149.378
-147.608
-145.846
-144.084
-142.204
-140.408
-138.732
-136.811
-134.888
-132.839
-130.995
-128.655
-200.942
-183.779
-166.982
-157.31
-153.359
-151.502
-149.855
-148.047
-146.221
-144.376
-142.472
-140.634
-138.917
-136.973
-135.06
-133.053
-131.205
-129.111
-263.303
-183.163
-155.113
-150.132
-149.364
-148.74
-147.726
-146.465
-144.989
-143.42
-141.795
-140.153
-138.463
-136.733
-134.945
-132.988
-131.201
-128.583
-242.721
-182.261
-155.873
-150.55
-149.591
-148.832
-147.763
-146.487
-145.006
-143.432
-141.805
-140.161
-138.471
-136.739
-134.962
-132.991
-131.251
-128.638
-229.67
-183.186
-158.277
-151.721
-150.177
-149.138
-147.908
-146.56
-145.052
-143.462
-141.828
-140.181
-138.491
-136.752
-134.995
-132.993
-131.383
-128.855
-219.784
-183.958
-161
-153.149
-151.009
-149.684
-148.25
-146.773
-145.192
-143.559
-141.9
-140.233
-138.538
-136.782
-135.05
-133.018
-131.532
-129.212
-210.643
-184.166
-163.448
-154.608
-151.886
-150.349
-148.761
-147.141
-145.457
-143.755
-142.055
-140.347
-138.633
-136.848
-135.135
-133.087
-131.685
-129.616
-202.055
-183.765
-165.45
-156.043
-152.716
-150.983
-149.308
-147.592
-145.812
-144.034
-142.289
-140.528
-138.783
-136.961
-135.251
-133.209
-131.832
-130.003
-196.108
-182.906
-167.038
-157.484
-153.509
-151.541
-149.814
-148.044
-146.195
-144.346
-142.551
-140.736
-138.963
-137.11
-135.381
-133.381
-131.963
-130.319
-273.988
-187.027
-156.805
-151.091
-149.968
-149.17
-148.02
-146.656
-145.164
-143.588
-141.873
-140.14
-138.388
-136.655
-134.738
-132.877
-130.709
-128.451
-252.958
-186.124
-157.581
-151.505
-150.194
-149.265
-148.058
-146.677
-145.179
-143.602
-141.885
-140.147
-138.397
-136.664
-134.753
-132.876
-130.759
-128.536
-239.645
-186.943
-159.984
-152.672
-150.777
-149.57
-148.204
-146.747
-145.224
-143.636
-141.911
-140.164
-138.413
-136.679
-134.78
-132.879
-130.884
-128.661
-228.718
-187.625
-162.659
-154.075
-151.594
-150.114
-148.548
-146.955
-145.361
-143.733
-141.98
-140.212
-138.458
-136.71
-134.834
-132.903
-131.017
-128.856
-217.696
-187.705
-165.101
-155.519
-152.456
-150.769
-149.054
-147.316
-145.621
-143.927
-142.131
-140.324
-138.556
-136.777
-134.922
-132.971
-131.152
-129.104
-210.013
-187.339
-167.061
-156.912
-153.263
-151.399
-149.601
-147.757
-145.963
-144.189
-142.35
-140.5
-138.714
-136.895
-135.052
-133.091
-131.293
-129.369
-204.284
-186.552
-168.608
-158.318
-154.027
-151.939
-150.096
-148.208
-146.35
-144.501
-142.614
-140.714
-138.903
-137.043
-135.209
-133.263
-131.441
-129.625
-260.832
-183.283
-155.336
-150.448
-149.688
-148.944
-147.905
-146.62
-145.091
-143.561
-141.849
-140.154
-138.324
-136.496
-134.39
-132.208
-129.624
-126.591
-241.757
-182.531
-156.11
-150.87
-149.921
-149.034
-147.943
-146.644
-145.105
-143.575
-141.862
-140.161
-138.335
-136.504
-134.41
-132.203
-129.68
-126.724
-229.524
-183.58
-158.552
-152.059
-150.511
-149.336
-148.088
-146.719
-145.148
-143.612
-141.888
-140.18
-138.356
-136.519
-134.444
-132.204
-129.835
-126.946
-221.034
-184.673
-161.335
-153.5
-151.338
-149.885
-148.439
-146.933
-145.286
-143.713
-141.96
-140.233
-138.405
-136.552
-134.507
-132.237
-130.018
-127.25
-213.722
-185.127
-163.845
-154.965
-152.197
-150.546
-148.954
-147.298
-145.551
-143.911
-142.11
-140.347
-138.506
-136.627
-134.611
-132.328
-130.222
-127.615
-206.655
-184.924
-165.9
-156.402
-153.015
-151.194
-149.52
-147.748
-145.911
-144.188
-142.332
-140.524
-138.664
-136.747
-134.756
-132.485
-130.446
-128.013
-201.201
-184.224
-167.479
-157.817
-153.794
-151.774
-150.048
-148.21
-146.307
-144.495
-142.591
-140.74
-138.86
-136.914
-134.932
-132.697
-130.681
-128.412
-266.356
-184.606
-156.225
-151.155
-150.193
-149.353
-148.163
-146.757
-145.237
-143.685
-142.03
-140.367
-138.503
-136.73
-134.682
-132.61
-130.126
-127.112
-246.27
-183.739
-156.972
-151.561
-150.417
-149.448
-148.202
-146.777
-145.252
-143.698
-142.04
-140.378
-138.513
-136.737
-134.701
-132.603
-130.179
-127.272
-233.053
-184.527
-159.366
-152.724
-151.001
-149.754
-148.349
-146.849
-145.296
-143.731
-142.065
-140.402
-138.53
-136.751
-134.731
-132.598
-130.334
-127.522
-222.054
-185.111
-161.979
-154.109
-151.82
-150.304
-148.699
-147.065
-145.437
-143.829
-142.138
-140.457
-138.574
-136.78
-134.786
-132.626
-130.515
-127.85
-210.787
-185.043
-164.356
-155.53
-152.679
-150.967
-149.215
-147.441
-145.704
-144.02
-142.286
-140.567
-138.667
-136.848
-134.879
-132.707
-130.715
-128.226
-201.942
-184.388
-166.283
-156.941
-153.501
-151.607
-149.777
-147.91
-146.066
-144.291
-142.505
-140.733
-138.816
-136.965
-135.014
-132.852
-130.932
-128.614
-195.791
-183.33
-167.759
-158.342
-154.288
-152.172
-150.3
-148.383
-146.456
-144.594
-142.761
-140.932
-139.002
-137.121
-135.177
-133.049
-131.159
-128.997
-263.453
-183.818
-155.669
-150.636
-149.799
-149.036
-147.956
-146.673
-145.177
-143.649
-141.989
-140.252
-138.365
-136.549
-134.418
-132.156
-129.719
-126.589
-244.889
-183.057
-156.455
-151.059
-150.034
-149.133
-147.996
-146.695
-145.192
-143.661
-142.002
-140.263
-138.373
-136.557
-134.442
-132.152
-129.768
-126.804
-232.368
-184.094
-158.922
-152.259
-150.629
-149.444
-148.146
-146.771
-145.237
-143.696
-142.033
-140.285
-138.391
-136.574
-134.477
-132.149
-129.924
-127.132
-222.833
-185.09
-161.688
-153.712
-151.468
-149.997
-148.5
-146.99
-145.376
-143.796
-142.108
-140.339
-138.436
-136.61
-134.539
-132.188
-130.115
-127.556
-214.291
-185.496
-164.214
-155.218
-152.363
-150.673
-149.028
-147.369
-145.643
-143.993
-142.26
-140.454
-138.534
-136.685
-134.639
-132.286
-130.332
-128.011
-207.574
-185.375
-166.309
-156.704
-153.219
-151.329
-149.601
-147.831
-145.994
-144.262
-142.477
-140.629
-138.692
-136.809
-134.779
-132.459
-130.575
-128.466
-202.478
-184.791
-167.977
-158.185
-154.02
-151.891
-150.129
-148.304
-146.386
-144.574
-142.731
-140.84
-138.891
-136.975
-134.955
-132.696
-130.831
-128.873
-263.747
-184.551
-156.229
-151.012
-150.065
-149.258
-148.182
-146.829
-145.211
-143.666
-142.195
-140.469
-138.855
-137.505
-135.845
-134.344
-133.471
-132.116
-243.779
-183.777
-157.031
-151.443
-150.3
-149.351
-148.221
-146.857
-145.227
-143.672
-142.214
-140.479
-138.854
-137.52
-135.867
-134.331
-133.524
-132.214
-231.402
-184.878
-159.495
-152.64
-150.897
-149.659
-148.371
-146.937
-145.268
-143.698
-142.25
-140.495
-138.858
-137.547
-135.895
-134.311
-133.63
-132.436
-223.169
-186.106
-162.32
-154.114
-151.751
-150.218
-148.726
-147.154
-145.4
-143.791
-142.328
-140.538
-138.887
-137.586
-135.929
-134.301
-133.717
-132.669
-216.334
-186.792
-164.873
-155.604
-152.631
-150.887
-149.246
-147.522
-145.66
-143.988
-142.477
-140.637
-138.967
-137.651
-135.98
-134.322
-133.765
-132.836
-208.991
-186.795
-166.988
-157.092
-153.488
-151.538
-149.804
-147.958
-146
-144.265
-142.684
-140.793
-139.107
-137.746
-136.045
-134.387
-133.775
-132.909
-204.663
-186.41
-168.722
-158.571
-154.285
-152.096
-150.321
-148.416
-146.391
-144.584
-142.923
-140.979
-139.283
-137.879
-136.128
-134.485
-133.758
-132.904
-261.094
-181.922
-154.651
-150.074
-149.375
-148.795
-147.819
-146.518
-145.029
-143.472
-141.954
-140.25
-138.368
-136.674
-134.603
-132.505
-130.666
-127.675
-240.7
-181.153
-155.464
-150.512
-149.61
-148.889
-147.861
-146.542
-145.046
-143.479
-141.967
-140.267
-138.372
-136.687
-134.625
-132.488
-130.71
-127.948
-228.614
-182.294
-157.941
-151.708
-150.204
-149.197
-148.012
-146.617
-145.093
-143.508
-141.997
-140.295
-138.383
-136.709
-134.658
-132.482
-130.855
-128.38
-218.808
-183.354
-160.772
-153.184
-151.057
-149.758
-148.363
-146.832
-145.236
-143.605
-142.075
-140.353
-138.421
-136.75
-134.711
-132.513
-131.026
-128.864
-210.361
-183.905
-163.354
-154.686
-151.95
-150.433
-148.874
-147.2
-145.502
-143.802
-142.228
-140.466
-138.513
-136.832
-134.8
-132.603
-131.215
-129.337
-202.833
-183.976
-165.551
-156.202
-152.817
-151.082
-149.421
-147.655
-145.863
-144.083
-142.446
-140.626
-138.663
-136.957
-134.93
-132.768
-131.409
-129.749
-198.149
-183.607
-167.269
-157.686
-153.635
-151.662
-149.939
-148.124
-146.269
-144.412
-142.697
-140.822
-138.851
-137.113
-135.093
-132.992
-131.598
-130.076
-256.33
-180.887
-154.233
-149.831
-149.332
-148.816
-147.809
-146.513
-144.988
-143.451
-141.844
-140.179
-138.408
-136.621
-134.543
-132.407
-129.944
-126.728
-236.254
-180.048
-155
-150.245
-149.56
-148.913
-147.85
-146.535
-145.003
-143.461
-141.856
-140.188
-138.418
-136.631
-134.563
-132.404
-129.988
-126.992
-224.312
-181.107
-157.435
-151.425
-150.149
-149.22
-147.999
-146.61
-145.044
-143.492
-141.884
-140.206
-138.437
-136.648
-134.594
-132.406
-130.13
-127.348
-214.709
-182.1
-160.202
-152.87
-150.981
-149.764
-148.34
-146.821
-145.178
-143.589
-141.958
-140.256
-138.483
-136.683
-134.648
-132.448
-130.305
-127.798
-207.068
-182.53
-162.673
-154.332
-151.853
-150.422
-148.847
-147.183
-145.435
-143.781
-142.108
-140.366
-138.579
-136.757
-134.745
-132.547
-130.508
-128.278
-200.837
-182.352
-164.756
-155.803
-152.684
-151.035
-149.379
-147.623
-145.78
-144.055
-142.328
-140.537
-138.729
-136.88
-134.885
-132.711
-130.741
-128.74
-194.351
-181.558
-166.328
-157.219
-153.46
-151.573
-149.877
-148.074
-146.161
-144.368
-142.583
-140.738
-138.911
-137.039
-135.062
-132.934
-131.008
-129.147
-268.099
-184.004
-155.054
-149.917
-149.134
-148.6
-147.629
-146.4
-144.925
-143.333
-141.68
-139.968
-138.139
-136.268
-134.079
-131.778
-129.061
-125.203
-247.953
-183.161
-155.828
-150.332
-149.355
-148.691
-147.668
-146.42
-144.943
-143.344
-141.69
-139.977
-138.148
-136.279
-134.098
-131.777
-129.117
-125.481
-234.211
-184.019
-158.239
-151.497
-149.936
-148.996
-147.815
-146.492
-144.99
-143.375
-141.714
-139.997
-138.167
-136.297
-134.13
-131.782
-129.284
-125.88
-224.084
-184.759
-160.915
-152.9
-150.759
-149.542
-148.158
-146.702
-145.13
-143.47
-141.786
-140.05
-138.214
-136.334
-134.194
-131.832
-129.492
-126.389
-215.633
-184.906
-163.288
-154.329
-151.629
-150.204
-148.662
-147.063
-145.389
-143.663
-141.939
-140.165
-138.315
-136.414
-134.3
-131.95
-129.734
-126.95
-208.898
-184.482
-165.226
-155.741
-152.459
-150.836
-149.204
-147.503
-145.735
-143.936
-142.163
-140.338
-138.47
-136.544
-134.452
-132.148
-130.01
-127.513
-202.053
-183.392
-166.686
-157.134
-153.24
-151.381
-149.699
-147.952
-146.124
-144.262
-142.44
-140.553
-138.66
-136.714
-134.632
-132.403
-130.315
-128.043
-264.626
-183.416
-154.964
-149.953
-149.245
-148.711
-147.767
-146.461
-144.975
-143.386
-141.608
-139.909
-138.217
-136.32
-134.272
-132.125
-129.715
-126.071
-243.097
-182.4
-155.714
-150.366
-149.471
-148.802
-147.806
-146.483
-144.991
-143.403
-141.619
-139.911
-138.231
-136.33
-134.284
-132.13
-129.768
-126.254
-229.093
-183.326
-158.148
-151.54
-150.056
-149.107
-147.955
-146.553
-145.034
-143.44
-141.641
-139.924
-138.256
-136.346
-134.308
-132.142
-129.924
-126.608
-220.007
-184.269
-160.867
-152.954
-150.874
-149.649
-148.298
-146.76
-145.172
-143.539
-141.708
-139.973
-138.31
-136.382
-134.363
-132.193
-130.115
-127.071
-212.542
-184.679
-163.342
-154.413
-151.742
-150.301
-148.792
-147.111
-145.428
-143.73
-141.857
-140.09
-138.415
-136.459
-134.463
-132.301
-130.328
-127.601
-205.298
-184.433
-165.375
-155.849
-152.558
-150.922
-149.319
-147.545
-145.778
-144.001
-142.092
-140.282
-138.575
-136.586
-134.613
-132.48
-130.56
-128.145
-200.85
-183.729
-166.925
-157.246
-153.313
-151.455
-149.799
-147.985
-146.153
-144.296
-142.363
-140.512
-138.765
-136.756
-134.796
-132.717
-130.801
-128.66
-263.227
-183.093
-155.064
-150.082
-149.313
-148.702
-147.668
-146.412
-144.937
-143.344
-141.712
-140.05
-138.341
-136.582
-134.743
-132.757
-130.905
-128.179
-242.642
-182.192
-155.825
-150.5
-149.539
-148.796
-147.706
-146.432
-144.955
-143.354
-141.723
-140.058
-138.35
-136.59
-134.758
-132.76
-130.958
-128.243
-229.595
-183.117
-158.23
-151.671
-150.124
-149.103
-147.851
-146.505
-145.002
-143.385
-141.747
-140.078
-138.37
-136.605
-134.791
-132.764
-131.096
-128.472
-219.711
-183.889
-160.952
-153.097
-150.955
-149.649
-148.193
-146.719
-145.142
-143.481
-141.82
-140.13
-138.419
-136.637
-134.846
-132.794
-131.253
-128.848
-210.564
-184.096
-163.399
-154.555
-151.835
-150.313
-148.703
-147.09
-145.408
-143.677
-141.976
-140.244
-138.516
-136.707
-134.934
-132.869
-131.417
-129.274
-201.972
-183.701
-165.399
-155.989
-152.668
-150.946
-149.251
-147.543
-145.761
-143.959
-142.213
-140.426
-138.668
-136.825
-135.054
-133
-131.579
-129.684
-196.031
-182.843
-166.985
-157.428
-153.463
-151.502
-149.76
-147.998
-146.144
-144.272
-142.478
-140.635
-138.851
-136.979
-135.193
-133.182
-131.725
-130.03
-273.908
-186.955
-156.749
-151.034
-149.923
-149.135
-147.978
-146.619
-145.12
-143.539
-141.819
-140.074
-138.314
-136.569
-134.63
-132.765
-130.583
-128.329
-252.877
-186.053
-157.525
-151.447
-150.149
-149.23
-148.015
-146.639
-145.136
-143.552
-141.832
-140.082
-138.322
-136.578
-134.644
-132.764
-130.634
-128.411
-239.557
-186.872
-159.928
-152.615
-150.734
-149.535
-148.162
-146.709
-145.182
-143.586
-141.859
-140.098
-138.338
-136.595
-134.67
-132.768
-130.76
-128.532
-228.62
-187.554
-162.601
-154.02
-151.553
-150.079
-148.506
-146.919
-145.319
-143.684
-141.929
-140.146
-138.383
-136.627
-134.723
-132.794
-130.896
-128.723
-217.596
-187.634
-165.041
-155.464
-152.416
-150.734
-149.014
-147.281
-145.579
-143.878
-142.081
-140.259
-138.484
-136.697
-134.813
-132.865
-131.033
-128.969
-209.915
-187.268
-166.997
-156.859
-153.226
-151.363
-149.562
-147.723
-145.92
-144.142
-142.3
-140.435
-138.643
-136.816
-134.944
-132.989
-131.176
-129.233
-204.179
-186.479
-168.541
-158.266
-153.991
-151.901
-150.059
-148.176
-146.307
-144.454
-142.564
-140.65
-138.835
-136.966
-135.105
-133.163
-131.324
-129.496
-260.786
-183.237
-155.311
-150.415
-149.653
-148.927
-147.876
-146.599
-145.073
-143.531
-141.83
-140.121
-138.297
-136.458
-134.35
-132.153
-129.53
-126.569
-241.71
-182.485
-156.085
-150.836
-149.884
-149.02
-147.913
-146.622
-145.087
-143.544
-141.843
-140.128
-138.308
-136.465
-134.37
-132.152
-129.583
-126.706
-229.477
-183.534
-158.526
-152.024
-150.473
-149.323
-148.059
-146.697
-145.131
-143.581
-141.87
-140.148
-138.328
-136.481
-134.403
-132.154
-129.734
-126.934
-220.985
-184.625
-161.307
-153.465
-151.3
-149.873
-148.409
-146.912
-145.27
-143.682
-141.943
-140.2
-138.377
-136.515
-134.466
-132.19
-129.914
-127.244
-213.668
-185.077
-163.818
-154.929
-152.159
-150.533
-148.924
-147.278
-145.536
-143.88
-142.093
-140.314
-138.48
-136.59
-134.571
-132.283
-130.118
-127.616
-206.586
-184.871
-165.875
-156.363
-152.979
-151.18
-149.489
-147.729
-145.894
-144.157
-142.317
-140.491
-138.638
-136.712
-134.717
-132.442
-130.345
-128.023
-201.119
-184.163
-167.451
-157.778
-153.759
-151.76
-150.018
-148.191
-146.289
-144.465
-142.575
-140.706
-138.836
-136.881
-134.892
-132.657
-130.585
-128.426
-266.349
-184.577
-156.192
-151.142
-150.18
-149.344
-148.161
-146.757
-145.233
-143.7
-142.046
-140.374
-138.535
-136.76
-134.706
-132.654
-130.155
-127.166
-246.265
-183.71
-156.938
-151.549
-150.404
-149.438
-148.201
-146.777
-145.248
-143.711
-142.058
-140.385
-138.545
-136.768
-134.724
-132.648
-130.207
-127.323
-233.053
-184.497
-159.334
-152.712
-150.989
-149.743
-148.348
-146.849
-145.291
-143.744
-142.085
-140.407
-138.563
-136.782
-134.752
-132.644
-130.36
-127.569
-222.06
-185.082
-161.95
-154.096
-151.808
-150.293
-148.698
-147.065
-145.433
-143.842
-142.157
-140.462
-138.607
-136.812
-134.805
-132.671
-130.539
-127.893
-210.796
-185.013
-164.33
-155.519
-152.665
-150.956
-149.213
-147.441
-145.7
-144.033
-142.306
-140.57
-138.702
-136.879
-134.896
-132.75
-130.737
-128.263
-201.959
-184.363
-166.26
-156.932
-153.486
-151.596
-149.776
-147.91
-146.062
-144.303
-142.525
-140.737
-138.85
-136.995
-135.029
-132.892
-130.951
-128.649
-195.816
-183.31
-167.743
-158.333
-154.271
-152.161
-150.297
-148.381
-146.454
-144.606
-142.779
-140.937
-139.033
-137.149
-135.191
-133.087
-131.174
-129.025
-263.433
-183.79
-155.676
-150.646
-149.787
-149.057
-147.973
-146.683
-145.211
-143.672
-142.038
-140.303
-138.429
-136.646
-134.496
-132.276
-129.841
-126.737
-244.867
-183.029
-156.463
-151.072
-150.02
-149.155
-148.014
-146.703
-145.226
-143.685
-142.052
-140.314
-138.436
-136.657
-134.518
-132.27
-129.892
-126.944
-232.345
-184.067
-158.93
-152.273
-150.614
-149.468
-148.165
-146.778
-145.272
-143.718
-142.082
-140.336
-138.451
-136.676
-134.551
-132.268
-130.048
-127.26
-222.807
-185.063
-161.699
-153.726
-151.453
-150.023
-148.516
-146.996
-145.413
-143.818
-142.158
-140.39
-138.495
-136.714
-134.609
-132.306
-130.238
-127.671
-214.262
-185.47
-164.229
-155.228
-152.349
-150.701
-149.041
-147.375
-145.679
-144.013
-142.311
-140.504
-138.592
-136.79
-134.706
-132.403
-130.453
-128.112
-207.546
-185.35
-166.327
-156.71
-153.207
-151.358
-149.611
-147.839
-146.03
-144.281
-142.53
-140.676
-138.748
-136.913
-134.842
-132.574
-130.693
-128.558
-202.452
-184.77
-167.997
-158.189
-154.013
-151.919
-150.137
-148.317
-146.419
-144.591
-142.785
-140.883
-138.946
-137.074
-135.012
-132.806
-130.943
-128.95
-263.723
-184.537
-156.224
-151.022
-150.058
-149.28
-148.226
-146.837
-145.256
-143.746
-142.252
-140.561
-138.986
-137.663
-136.028
-134.634
-133.827
-132.673
-243.756
-183.762
-157.025
-151.453
-150.293
-149.372
-148.268
-146.864
-145.27
-143.755
-142.27
-140.569
-138.986
-137.679
-136.047
-134.621
-133.881
-132.753
-231.381
-184.862
-159.49
-152.649
-150.889
-149.679
-148.421
-146.941
-145.31
-143.784
-142.304
-140.584
-138.991
-137.705
-136.07
-134.604
-133.981
-132.948
-223.151
-186.091
-162.317
-154.123
-151.741
-150.239
-148.777
-147.156
-145.443
-143.878
-142.38
-140.626
-139.02
-137.743
-136.099
-134.59
-134.057
-133.144
-216.32
-186.781
-164.874
-155.611
-152.623
-150.909
-149.295
-147.522
-145.705
-144.074
-142.527
-140.723
-139.097
-137.804
-136.143
-134.606
-134.09
-133.271
-208.981
-186.785
-166.99
-157.098
-153.482
-151.563
-149.848
-147.959
-146.048
-144.347
-142.734
-140.879
-139.234
-137.894
-136.202
-134.663
-134.082
-133.309
-204.658
-186.397
-168.724
-158.575
-154.281
-152.123
-150.358
-148.419
-146.442
-144.659
-142.973
-141.063
-139.403
-138.019
-136.28
-134.751
-134.044
-133.241
-261.055
-181.904
-154.648
-150.08
-149.409
-148.81
-147.865
-146.565
-145.073
-143.566
-142.041
-140.364
-138.533
-136.877
-134.855
-132.826
-131.106
-128.3
-240.661
-181.137
-155.462
-150.518
-149.645
-148.904
-147.906
-146.589
-145.088
-143.576
-142.054
-140.379
-138.538
-136.89
-134.877
-132.809
-131.149
-128.563
-228.566
-182.28
-157.939
-151.715
-150.241
-149.211
-148.056
-146.664
-145.132
-143.606
-142.084
-140.406
-138.549
-136.911
-134.909
-132.799
-131.285
-128.973
-218.758
-183.338
-160.77
-153.192
-151.092
-149.77
-148.408
-146.879
-145.273
-143.705
-142.159
-140.462
-138.587
-136.951
-134.961
-132.824
-131.443
-129.424
-210.308
-183.887
-163.348
-154.696
-151.983
-150.442
-148.92
-147.243
-145.541
-143.901
-142.308
-140.574
-138.677
-137.026
-135.047
-132.904
-131.61
-129.856
-202.768
-183.954
-165.543
-156.215
-152.846
-151.091
-149.466
-147.693
-145.904
-144.179
-142.522
-140.733
-138.823
-137.144
-135.172
-133.055
-131.78
-130.223
-198.069
-183.579
-167.259
-157.7
-153.659
-151.674
-149.981
-148.157
-146.316
-144.502
-142.771
-140.93
-139.005
-137.294
-135.329
-133.263
-131.942
-130.499
-186.293
-180.062
-167.909
-159.11
-154.52
-152.231
-150.49
-148.666
-146.723
-144.883
-143.038
-141.151
-139.308
-137.446
-135.531
-133.529
-131.707
-129.911
-182.39
-177.98
-169.132
-161.186
-155.933
-153.028
-151.11
-149.243
-147.306
-145.434
-143.518
-141.582
-139.653
-137.762
-135.883
-133.913
-132.069
-130.204
-178.692
-175.551
-169.415
-162.805
-157.566
-154.027
-151.76
-149.801
-147.859
-145.988
-144.032
-142.049
-140.04
-138.13
-136.241
-134.26
-132.429
-130.506
-175.406
-173.176
-169.132
-163.957
-159.145
-155.302
-152.572
-150.403
-148.405
-146.524
-144.554
-142.554
-140.521
-138.56
-136.637
-134.603
-132.697
-130.734
-171.224
-170.94
-168.334
-164.466
-160.361
-156.657
-153.614
-151.136
-149.002
-147.058
-145.059
-143.044
-141.023
-139.046
-137.07
-135.02
-133.075
-131.029
-179.413
-171.85
-168.137
-164.753
-161.296
-157.868
-154.795
-152.062
-149.689
-147.615
-145.534
-143.513
-141.513
-139.539
-137.567
-135.501
-133.555
-131.489
-180.623
-171.135
-167.434
-164.633
-161.695
-158.731
-155.883
-153.139
-150.629
-148.34
-146.105
-144.032
-142.002
-139.979
-137.936
-135.784
-133.828
-131.936
-165.492
-167.613
-166.36
-164.438
-162.047
-159.421
-156.793
-154.143
-151.574
-149.125
-146.74
-144.572
-142.52
-140.506
-138.51
-136.489
-134.522
-132.555
-158.061
-162.715
-164.083
-163.719
-162.145
-159.97
-157.549
-155.051
-152.521
-149.991
-147.516
-145.226
-143.072
-140.971
-138.928
-136.945
-135.042
-133.129
-168.513
-167.903
-167.032
-165.362
-163.394
-160.949
-158.368
-155.854
-153.256
-150.67
-148.21
-145.849
-143.574
-141.392
-139.342
-137.351
-135.446
-133.725
-192.685
-181.237
-168.078
-158.94
-154.29
-152.057
-150.328
-148.547
-146.667
-144.786
-142.905
-140.982
-139.105
-137.156
-135.149
-133.074
-131.054
-129
-182.292
-177.821
-168.874
-160.864
-155.672
-152.843
-150.938
-149.132
-147.28
-145.361
-143.395
-141.408
-139.44
-137.482
-135.498
-133.509
-131.513
-129.484
-171.973
-174.083
-168.852
-162.402
-157.313
-153.834
-151.544
-149.663
-147.814
-145.91
-143.953
-141.922
-139.889
-137.916
-135.897
-133.881
-131.885
-129.871
-168.251
-170.76
-168.142
-163.391
-158.796
-155.043
-152.352
-150.294
-148.368
-146.431
-144.454
-142.414
-140.357
-138.368
-136.373
-134.356
-132.413
-130.287
-162.273
-168.276
-167.253
-163.855
-159.972
-156.349
-153.357
-150.99
-148.889
-146.928
-144.971
-142.94
-140.882
-138.875
-136.803
-134.72
-132.713
-130.587
-163.701
-167.43
-166.557
-163.963
-160.778
-157.524
-154.559
-151.976
-149.629
-147.53
-145.468
-143.424
-141.416
-139.433
-137.405
-135.333
-133.336
-131.237
-168.797
-166.925
-165.91
-163.867
-161.239
-158.371
-155.579
-152.942
-150.424
-148.191
-146.041
-143.929
-141.899
-139.878
-137.796
-135.656
-133.675
-131.734
-167.922
-165.95
-164.977
-163.42
-161.297
-158.965
-156.54
-153.971
-151.411
-149.049
-146.754
-144.528
-142.458
-140.436
-138.427
-136.407
-134.482
-132.473
-154.542
-160.367
-162.939
-162.761
-161.37
-159.382
-157.152
-154.742
-152.225
-149.819
-147.443
-145.148
-142.968
-140.851
-138.786
-136.747
-134.867
-133.133
-159.232
-163.964
-164.592
-163.869
-162.309
-160.254
-157.998
-155.609
-153.082
-150.57
-148.153
-145.809
-143.542
-141.363
-139.315
-137.339
-135.484
-133.755
-196.406
-182.37
-168.527
-159.143
-154.384
-152.138
-150.386
-148.582
-146.738
-144.803
-142.872
-140.961
-139.165
-137.214
-135.29
-133.346
-131.444
-129.6
-190.09
-179.637
-169.458
-161.075
-155.755
-152.932
-150.992
-149.167
-147.309
-145.341
-143.377
-141.414
-139.526
-137.577
-135.619
-133.748
-131.813
-129.946
-181.405
-176.255
-169.522
-162.599
-157.367
-153.929
-151.611
-149.705
-147.84
-145.884
-143.919
-141.895
-139.93
-137.974
-135.971
-134.074
-132.118
-130.225
-174.085
-173.357
-168.96
-163.612
-158.873
-155.18
-152.393
-150.279
-148.355
-146.414
-144.463
-142.443
-140.418
-138.435
-136.449
-134.52
-132.58
-130.518
-176.24
-171.668
-168.139
-164.089
-160.037
-156.446
-153.402
-151.024
-148.925
-146.926
-144.998
-142.964
-140.915
-138.92
-136.863
-134.887
-132.828
-130.773
-173.597
-170.014
-167.161
-164.098
-160.822
-157.528
-154.509
-151.918
-149.602
-147.483
-145.522
-143.463
-141.433
-139.471
-137.468
-135.476
-133.437
-131.328
-166.412
-167.279
-165.95
-163.756
-161.191
-158.395
-155.624
-153.017
-150.502
-148.202
-146.052
-143.947
-141.876
-139.879
-137.828
-135.744
-133.718
-131.772
-160.651
-164.767
-164.793
-163.496
-161.359
-158.918
-156.477
-153.955
-151.374
-148.976
-146.719
-144.54
-142.469
-140.434
-138.429
-136.476
-134.568
-132.465
-163.45
-162.886
-163.407
-162.851
-161.384
-159.471
-157.236
-154.803
-152.301
-149.824
-147.437
-145.165
-142.965
-140.836
-138.775
-136.778
-134.912
-133.137
-159.703
-164.319
-164.548
-163.577
-162.153
-160.237
-157.95
-155.494
-153.007
-150.528
-148.121
-145.807
-143.527
-141.335
-139.297
-137.321
-135.49
-133.767
-189.217
-181.244
-168.564
-159.298
-154.522
-152.18
-150.396
-148.607
-146.714
-144.79
-142.937
-141.044
-139.21
-137.333
-135.559
-133.629
-132.102
-130.625
-179.286
-178.573
-169.699
-161.377
-155.992
-153.01
-151.024
-149.208
-147.315
-145.345
-143.417
-141.469
-139.56
-137.663
-135.816
-133.956
-132.265
-130.741
-178.717
-176.478
-169.991
-162.947
-157.575
-153.993
-151.67
-149.777
-147.873
-145.91
-143.952
-141.953
-139.954
-138.019
-136.14
-134.29
-132.526
-130.94
-177.425
-174.27
-169.657
-164.081
-159.16
-155.256
-152.47
-150.348
-148.391
-146.454
-144.479
-142.469
-140.434
-138.437
-136.496
-134.54
-132.65
-130.887
-174.684
-172.689
-169.043
-164.647
-160.356
-156.603
-153.543
-151.108
-148.947
-146.987
-144.997
-142.952
-140.935
-138.931
-136.903
-134.924
-132.941
-131.074
-178.388
-172.517
-168.491
-164.843
-161.231
-157.774
-154.703
-152.055
-149.634
-147.528
-145.483
-143.443
-141.454
-139.453
-137.439
-135.47
-133.485
-131.499
-182.677
-171.552
-167.678
-164.71
-161.795
-158.727
-155.777
-153.09
-150.549
-148.254
-146.073
-143.973
-141.926
-139.856
-137.824
-135.784
-133.753
-131.83
-173.46
-170.233
-167.263
-164.738
-162.152
-159.428
-156.728
-154.107
-151.51
-149.08
-146.732
-144.534
-142.482
-140.423
-138.443
-136.545
-134.572
-132.502
-164.823
-166.226
-165.784
-164.194
-162.158
-159.919
-157.428
-154.905
-152.367
-149.896
-147.506
-145.215
-143.036
-140.865
-138.753
-136.765
-134.852
-133.012
-163.821
-165.506
-165.499
-164.601
-162.864
-160.706
-158.292
-155.811
-153.238
-150.692
-148.233
-145.871
-143.625
-141.451
-139.443
-137.501
-135.634
-133.687
-200.687
-185.086
-170.106
-160.107
-155.034
-152.584
-150.674
-148.753
-146.846
-144.923
-142.99
-141.043
-139.18
-137.282
-135.395
-133.49
-131.635
-129.837
-194.768
-182.471
-171.014
-162.034
-156.42
-153.384
-151.277
-149.323
-147.426
-145.473
-143.472
-141.473
-139.521
-137.619
-135.733
-133.799
-131.932
-130.029
-190.499
-179.744
-171.188
-163.597
-158.039