/*--------------------------------*- C++ -*----------------------------------*\
| =========                 |                                                 |
| \\      /  F ield         | OpenFOAM: The Open Source CFD Toolbox           |
|  \\    /   O peration     | Version:  3.0.1                                 |
|   \\  /    A nd           | Web:      www.OpenFOAM.org                      |
|    \\/     M anipulation  |                                                 |
\*---------------------------------------------------------------------------*/
FoamFile
{
    version     2.0;
    format      ascii;
    class       volScalarField;
    location    "0.1";
    object      p_mode_0;
}
// * * * * * * * * * * * * * * * * * * * * * * * * * * * * * * * * * * * * * //

dimensions      [0 0 0 0 0 0 0];

internalField   nonuniform List<scalar> 
244500
(
-693.241
-696.434
-695.328
-692.047
-688.234
-684.253
-680.082
-675.831
-671.563
-667.203
-662.721
-658.115
-653.302
-648.353
-643.287
-637.685
-631.704
-624.221
-695.736
-696.509
-695.263
-692.025
-688.225
-684.255
-680.088
-675.834
-671.569
-667.208
-662.727
-658.127
-653.314
-648.362
-643.312
-637.721
-631.762
-624.578
-697.321
-696.418
-695.062
-691.939
-688.191
-684.247
-680.088
-675.838
-671.576
-667.218
-662.739
-658.143
-653.332
-648.381
-643.352
-637.784
-631.874
-625.069
-697.655
-696.292
-694.852
-691.847
-688.146
-684.224
-680.077
-675.836
-671.58
-667.224
-662.749
-658.161
-653.35
-648.405
-643.398
-637.869
-632.027
-625.591
-698.432
-696.128
-694.635
-691.746
-688.105
-684.191
-680.053
-675.829
-671.576
-667.223
-662.751
-658.174
-653.366
-648.432
-643.444
-637.965
-632.209
-626.086
-696.434
-696.039
-694.515
-691.664
-688.079
-684.172
-680.048
-675.834
-671.574
-667.216
-662.746
-658.178
-653.376
-648.459
-643.486
-638.064
-632.402
-626.523
-694.676
-696.044
-694.443
-691.608
-688.084
-684.169
-680.043
-675.834
-671.572
-667.221
-662.75
-658.186
-653.393
-648.492
-643.527
-638.162
-632.593
-626.888
-693.127
-696.27
-695.427
-692.173
-688.3
-684.316
-680.225
-675.965
-671.686
-667.264
-662.732
-658.187
-653.445
-648.561
-643.596
-638.092
-632.298
-624.996
-694.023
-696.32
-695.363
-692.15
-688.293
-684.319
-680.235
-675.971
-671.692
-667.274
-662.737
-658.196
-653.457
-648.57
-643.622
-638.129
-632.357
-625.307
-694.325
-696.128
-695.144
-692.067
-688.261
-684.312
-680.242
-675.977
-671.702
-667.286
-662.743
-658.212
-653.475
-648.589
-643.663
-638.192
-632.457
-625.735
-695.153
-696.035
-694.907
-691.955
-688.206
-684.286
-680.232
-675.974
-671.707
-667.293
-662.749
-658.23
-653.494
-648.612
-643.71
-638.27
-632.589
-626.201
-696.228
-696.084
-694.764
-691.888
-688.186
-684.276
-680.218
-675.965
-671.705
-667.29
-662.751
-658.242
-653.507
-648.636
-643.751
-638.355
-632.737
-626.645
-696.145
-696.171
-694.664
-691.818
-688.168
-684.267
-680.199
-675.955
-671.699
-667.282
-662.75
-658.247
-653.514
-648.658
-643.784
-638.439
-632.888
-627.031
-696.517
-696.4
-694.665
-691.786
-688.176
-684.275
-680.189
-675.952
-671.697
-667.279
-662.753
-658.244
-653.516
-648.677
-643.81
-638.526
-633.041
-627.359
-689.816
-694.433
-694.319
-691.576
-688.043
-684.223
-680.17
-675.898
-671.632
-667.235
-662.714
-658.138
-653.424
-648.534
-643.565
-638.095
-632.471
-625.126
-691.586
-694.519
-694.259
-691.554
-688.04
-684.229
-680.183
-675.905
-671.639
-667.245
-662.719
-658.146
-653.435
-648.546
-643.587
-638.134
-632.533
-625.412
-692.318
-694.299
-694.036
-691.469
-688.013
-684.224
-680.191
-675.912
-671.649
-667.259
-662.727
-658.161
-653.452
-648.567
-643.625
-638.201
-632.637
-625.861
-692.829
-694.173
-693.824
-691.378
-687.969
-684.2
-680.18
-675.91
-671.658
-667.268
-662.735
-658.176
-653.469
-648.592
-643.667
-638.282
-632.773
-626.347
-691.917
-694.146
-693.691
-691.313
-687.931
-684.165
-680.151
-675.898
-671.66
-667.271
-662.738
-658.188
-653.48
-648.616
-643.705
-638.367
-632.922
-626.813
-692.592
-694.319
-693.605
-691.259
-687.915
-684.154
-680.135
-675.898
-671.664
-667.268
-662.739
-658.196
-653.485
-648.637
-643.738
-638.45
-633.067
-627.221
-694.652
-694.723
-693.631
-691.243
-687.925
-684.154
-680.119
-675.896
-671.671
-667.27
-662.743
-658.199
-653.488
-648.656
-643.769
-638.54
-633.204
-627.558
-689.156
-693.456
-693.801
-691.378
-688.021
-684.211
-680.187
-675.988
-671.721
-667.371
-662.853
-658.221
-653.534
-648.681
-643.857
-638.601
-633.322
-626.542
-689.824
-693.39
-693.719
-691.35
-688.017
-684.215
-680.195
-675.996
-671.726
-667.381
-662.862
-658.229
-653.546
-648.694
-643.876
-638.639
-633.382
-626.731
-688.215
-693.029
-693.469
-691.258
-687.988
-684.208
-680.202
-676.006
-671.733
-667.393
-662.874
-658.241
-653.563
-648.711
-643.909
-638.698
-633.472
-627.093
-688.047
-692.801
-693.231
-691.163
-687.947
-684.185
-680.197
-676.007
-671.736
-667.402
-662.882
-658.251
-653.579
-648.731
-643.945
-638.764
-633.582
-627.543
-688.548
-692.715
-693.003
-691.052
-687.894
-684.152
-680.183
-675.999
-671.732
-667.4
-662.881
-658.257
-653.589
-648.748
-643.975
-638.829
-633.697
-627.984
-688.531
-692.802
-692.913
-691.003
-687.872
-684.129
-680.167
-675.985
-671.718
-667.382
-662.872
-658.262
-653.595
-648.765
-644
-638.888
-633.799
-628.361
-690.052
-693.108
-692.904
-690.964
-687.865
-684.131
-680.164
-675.981
-671.714
-667.37
-662.862
-658.262
-653.593
-648.78
-644.024
-638.947
-633.883
-628.664
-689.172
-694.257
-694.369
-691.765
-688.128
-684.175
-680.172
-676.023
-671.726
-667.357
-662.78
-658.153
-653.451
-648.505
-643.47
-637.936
-632.218
-625.113
-691.438
-694.328
-694.324
-691.747
-688.12
-684.177
-680.177
-676.032
-671.731
-667.366
-662.789
-658.16
-653.466
-648.52
-643.495
-637.971
-632.273
-625.405
-690.899
-694.204
-694.144
-691.675
-688.09
-684.167
-680.182
-676.044
-671.742
-667.381
-662.8
-658.17
-653.487
-648.543
-643.534
-638.028
-632.372
-625.824
-690.511
-694.127
-693.936
-691.577
-688.038
-684.143
-680.176
-676.046
-671.746
-667.391
-662.806
-658.183
-653.508
-648.569
-643.578
-638.1
-632.502
-626.287
-692.663
-694.333
-693.814
-691.496
-688.003
-684.133
-680.167
-676.032
-671.738
-667.388
-662.807
-658.195
-653.524
-648.594
-643.62
-638.182
-632.652
-626.733
-694.807
-694.655
-693.762
-691.431
-687.98
-684.131
-680.157
-676.011
-671.721
-667.369
-662.798
-658.204
-653.534
-648.617
-643.654
-638.268
-632.808
-627.127
-696.52
-695.038
-693.749
-691.383
-687.993
-684.156
-680.155
-675.992
-671.715
-667.36
-662.798
-658.213
-653.536
-648.64
-643.687
-638.358
-632.96
-627.434
-691.282
-696.681
-695.778
-692.455
-688.534
-684.411
-680.344
-676.055
-671.715
-667.367
-662.762
-658.149
-653.38
-648.452
-643.482
-637.998
-632.189
-625.169
-694.376
-696.935
-695.734
-692.436
-688.53
-684.41
-680.353
-676.066
-671.717
-667.379
-662.769
-658.157
-653.394
-648.461
-643.507
-638.033
-632.248
-625.428
-696.581
-697.022
-695.564
-692.365
-688.504
-684.397
-680.361
-676.076
-671.725
-667.397
-662.779
-658.171
-653.413
-648.475
-643.546
-638.091
-632.35
-625.798
-698.937
-697.135
-695.367
-692.275
-688.461
-684.372
-680.355
-676.075
-671.73
-667.411
-662.785
-658.186
-653.43
-648.492
-643.588
-638.162
-632.483
-626.199
-699.292
-697.288
-695.244
-692.21
-688.416
-684.339
-680.33
-676.056
-671.729
-667.411
-662.781
-658.198
-653.441
-648.513
-643.629
-638.238
-632.636
-626.584
-700.178
-697.498
-695.177
-692.172
-688.41
-684.348
-680.322
-676.043
-671.73
-667.395
-662.771
-658.206
-653.446
-648.534
-643.663
-638.312
-632.794
-626.932
-701.105
-697.836
-695.227
-692.158
-688.413
-684.365
-680.311
-676.034
-671.743
-667.38
-662.764
-658.211
-653.446
-648.561
-643.697
-638.39
-632.945
-627.232
-691.549
-696.839
-695.886
-692.524
-688.51
-684.385
-680.305
-676.005
-671.644
-667.247
-662.691
-658.117
-653.355
-648.441
-643.414
-637.933
-632.132
-625.161
-694.453
-697.022
-695.845
-692.502
-688.502
-684.383
-680.313
-676.015
-671.647
-667.256
-662.696
-658.124
-653.368
-648.451
-643.437
-637.966
-632.192
-625.417
-696.706
-697.11
-695.684
-692.43
-688.47
-684.371
-680.322
-676.026
-671.653
-667.269
-662.704
-658.139
-653.386
-648.47
-643.476
-638.023
-632.296
-625.778
-697.956
-697.228
-695.511
-692.339
-688.408
-684.338
-680.31
-676.021
-671.655
-667.277
-662.71
-658.156
-653.406
-648.493
-643.52
-638.093
-632.432
-626.168
-698.487
-697.366
-695.409
-692.278
-688.382
-684.326
-680.291
-676.003
-671.654
-667.279
-662.712
-658.169
-653.421
-648.518
-643.563
-638.169
-632.586
-626.54
-699.001
-697.658
-695.362
-692.227
-688.361
-684.313
-680.255
-675.975
-671.651
-667.272
-662.709
-658.179
-653.43
-648.54
-643.599
-638.243
-632.748
-626.871
-700.902
-698.108
-695.376
-692.183
-688.354
-684.313
-680.225
-675.956
-671.657
-667.272
-662.711
-658.185
-653.437
-648.565
-643.631
-638.313
-632.904
-627.162
-688.337
-695.157
-694.94
-691.95
-688.136
-684.152
-680.14
-675.949
-671.669
-667.287
-662.728
-658.118
-653.388
-648.508
-643.479
-638.035
-632.227
-625.172
-691.682
-695.388
-694.9
-691.928
-688.127
-684.153
-680.147
-675.956
-671.675
-667.296
-662.734
-658.125
-653.399
-648.521
-643.503
-638.071
-632.286
-625.469
-693.515
-695.407
-694.699
-691.832
-688.087
-684.141
-680.152
-675.963
-671.684
-667.308
-662.743
-658.138
-653.417
-648.541
-643.539
-638.134
-632.387
-625.879
-694.443
-695.327
-694.478
-691.736
-688.047
-684.128
-680.149
-675.963
-671.686
-667.315
-662.749
-658.151
-653.433
-648.567
-643.581
-638.208
-632.521
-626.312
-696.81
-695.517
-694.315
-691.627
-687.996
-684.108
-680.133
-675.95
-671.678
-667.309
-662.746
-658.157
-653.445
-648.591
-643.62
-638.288
-632.672
-626.714
-697.785
-695.656
-694.173
-691.531
-687.967
-684.101
-680.116
-675.934
-671.666
-667.295
-662.739
-658.161
-653.454
-648.613
-643.656
-638.365
-632.828
-627.057
-698.414
-695.714
-694.064
-691.438
-687.968
-684.125
-680.114
-675.918
-671.65
-667.279
-662.731
-658.161
-653.457
-648.637
-643.692
-638.445
-632.987
-627.349
-684.456
-692.862
-693.883
-691.452
-687.961
-684.057
-680.008
-675.824
-671.595
-667.279
-662.807
-658.152
-653.416
-648.428
-643.363
-637.853
-632.184
-624.993
-686.547
-692.941
-693.811
-691.427
-687.953
-684.056
-680.014
-675.829
-671.598
-667.285
-662.817
-658.162
-653.429
-648.444
-643.385
-637.89
-632.235
-625.303
-688.191
-692.995
-693.659
-691.36
-687.92
-684.041
-680.015
-675.834
-671.605
-667.298
-662.832
-658.175
-653.45
-648.469
-643.42
-637.957
-632.343
-625.798
-689.58
-693.055
-693.439
-691.251
-687.861
-684.009
-680.001
-675.831
-671.606
-667.306
-662.843
-658.188
-653.468
-648.497
-643.46
-638.045
-632.489
-626.339
-690.448
-693.086
-693.288
-691.178
-687.821
-683.983
-679.986
-675.822
-671.6
-667.304
-662.842
-658.198
-653.48
-648.526
-643.501
-638.145
-632.654
-626.849
-691.927
-693.415
-693.216
-691.114
-687.791
-683.97
-679.976
-675.808
-671.585
-667.284
-662.825
-658.201
-653.484
-648.552
-643.539
-638.253
-632.82
-627.286
-692.846
-693.692
-693.193
-691.061
-687.769
-683.97
-679.984
-675.819
-671.591
-667.275
-662.81
-658.198
-653.48
-648.577
-643.577
-638.356
-632.981
-627.632
-689.812
-695.329
-694.947
-691.853
-688.103
-684.186
-680.16
-675.944
-671.711
-667.328
-662.776
-658.19
-653.494
-648.588
-643.678
-638.355
-632.878
-626.202
-692.514
-695.481
-694.886
-691.821
-688.089
-684.187
-680.169
-675.948
-671.717
-667.339
-662.783
-658.199
-653.509
-648.6
-643.698
-638.392
-632.931
-626.487
-693.562
-695.27
-694.637
-691.724
-688.056
-684.179
-680.174
-675.955
-671.728
-667.354
-662.791
-658.213
-653.53
-648.619
-643.732
-638.457
-633.021
-626.903
-693.929
-695.201
-694.425
-691.636
-688.018
-684.158
-680.163
-675.951
-671.732
-667.363
-662.796
-658.225
-653.55
-648.641
-643.769
-638.531
-633.131
-627.328
-694.787
-695.193
-694.243
-691.562
-687.989
-684.135
-680.137
-675.937
-671.727
-667.36
-662.795
-658.234
-653.562
-648.662
-643.801
-638.605
-633.246
-627.696
-695.359
-695.255
-694.114
-691.494
-687.975
-684.128
-680.118
-675.924
-671.711
-667.341
-662.784
-658.24
-653.568
-648.683
-643.829
-638.668
-633.355
-627.983
-696.182
-695.381
-694.065
-691.461
-687.985
-684.128
-680.099
-675.917
-671.706
-667.329
-662.77
-658.236
-653.564
-648.702
-643.864
-638.73
-633.455
-628.189
-693.268
-696.461
-695.342
-692.083
-688.261
-684.27
-680.12
-675.844
-671.606
-667.248
-662.759
-658.19
-653.406
-648.475
-643.472
-637.997
-632.122
-624.96
-695.763
-696.536
-695.277
-692.06
-688.252
-684.272
-680.127
-675.847
-671.61
-667.256
-662.764
-658.201
-653.419
-648.485
-643.496
-638.035
-632.179
-625.288
-697.346
-696.447
-695.075
-691.975
-688.218
-684.262
-680.13
-675.848
-671.617
-667.268
-662.774
-658.218
-653.437
-648.503
-643.534
-638.1
-632.281
-625.73
-697.688
-696.318
-694.864
-691.883
-688.171
-684.239
-680.119
-675.845
-671.623
-667.275
-662.781
-658.237
-653.454
-648.526
-643.576
-638.183
-632.415
-626.194
-698.473
-696.154
-694.646
-691.781
-688.126
-684.205
-680.096
-675.835
-671.62
-667.272
-662.783
-658.249
-653.467
-648.551
-643.618
-638.27
-632.57
-626.623
-696.483
-696.059
-694.525
-691.697
-688.097
-684.189
-680.088
-675.84
-671.622
-667.262
-662.777
-658.253
-653.475
-648.574
-643.653
-638.354
-632.732
-626.992
-694.736
-696.053
-694.451
-691.64
-688.1
-684.191
-680.079
-675.839
-671.623
-667.261
-662.783
-658.26
-653.488
-648.603
-643.687
-638.432
-632.891
-627.295
-693.112
-696.285
-695.444
-692.172
-688.32
-684.332
-680.231
-675.998
-671.716
-667.291
-662.794
-658.225
-653.51
-648.654
-643.671
-638.197
-632.407
-625.186
-694.01
-696.338
-695.382
-692.15
-688.314
-684.336
-680.24
-676.004
-671.724
-667.298
-662.799
-658.235
-653.52
-648.667
-643.695
-638.235
-632.465
-625.501
-694.312
-696.15
-695.166
-692.069
-688.283
-684.329
-680.245
-676.011
-671.734
-667.309
-662.808
-658.251
-653.536
-648.687
-643.735
-638.297
-632.564
-625.931
-695.14
-696.062
-694.932
-691.96
-688.23
-684.303
-680.234
-676.009
-671.74
-667.314
-662.815
-658.267
-653.553
-648.714
-643.778
-638.373
-632.693
-626.398
-696.212
-696.119
-694.792
-691.897
-688.213
-684.289
-680.221
-676
-671.736
-667.311
-662.818
-658.278
-653.566
-648.737
-643.816
-638.454
-632.837
-626.839
-696.126
-696.216
-694.693
-691.831
-688.196
-684.279
-680.205
-675.987
-671.727
-667.304
-662.816
-658.281
-653.574
-648.758
-643.844
-638.535
-632.984
-627.226
-696.506
-696.454
-694.697
-691.803
-688.201
-684.286
-680.198
-675.981
-671.724
-667.305
-662.816
-658.276
-653.576
-648.772
-643.864
-638.616
-633.127
-627.549
-689.827
-694.465
-694.34
-691.578
-688.067
-684.226
-680.176
-675.931
-671.651
-667.265
-662.757
-658.187
-653.493
-648.581
-643.631
-638.181
-632.479
-625.011
-691.598
-694.554
-694.28
-691.556
-688.063
-684.233
-680.187
-675.939
-671.658
-667.273
-662.762
-658.194
-653.506
-648.592
-643.65
-638.225
-632.544
-625.318
-692.332
-694.337
-694.055
-691.47
-688.037
-684.227
-680.194
-675.948
-671.667
-667.286
-662.772
-658.208
-653.524
-648.612
-643.685
-638.297
-632.65
-625.795
-692.848
-694.214
-693.839
-691.382
-687.993
-684.199
-680.184
-675.947
-671.674
-667.296
-662.779
-658.222
-653.544
-648.636
-643.723
-638.385
-632.79
-626.31
-691.949
-694.191
-693.702
-691.318
-687.955
-684.161
-680.157
-675.935
-671.675
-667.299
-662.78
-658.231
-653.556
-648.658
-643.759
-638.476
-632.946
-626.802
-692.641
-694.359
-693.615
-691.266
-687.936
-684.147
-680.147
-675.932
-671.677
-667.297
-662.779
-658.238
-653.562
-648.676
-643.789
-638.562
-633.098
-627.233
-694.707
-694.766
-693.64
-691.252
-687.942
-684.147
-680.134
-675.928
-671.683
-667.3
-662.78
-658.24
-653.564
-648.694
-643.817
-638.651
-633.239
-627.592
-689.129
-693.439
-693.78
-691.363
-688.015
-684.214
-680.19
-676.011
-671.738
-667.38
-662.899
-658.25
-653.564
-648.751
-643.903
-638.648
-633.419
-626.621
-689.794
-693.369
-693.698
-691.335
-688.01
-684.219
-680.198
-676.02
-671.743
-667.387
-662.909
-658.26
-653.573
-648.765
-643.923
-638.683
-633.481
-626.815
-688.185
-693.002
-693.449
-691.242
-687.982
-684.212
-680.205
-676.031
-671.752
-667.399
-662.923
-658.272
-653.588
-648.786
-643.958
-638.738
-633.573
-627.182
-688.015
-692.77
-693.214
-691.147
-687.942
-684.19
-680.199
-676.032
-671.755
-667.405
-662.932
-658.282
-653.601
-648.809
-643.992
-638.8
-633.684
-627.635
-688.504
-692.673
-692.986
-691.038
-687.889
-684.157
-680.186
-676.026
-671.75
-667.403
-662.933
-658.287
-653.61
-648.828
-644.02
-638.864
-633.798
-628.076
-688.475
-692.759
-692.895
-690.988
-687.866
-684.135
-680.171
-676.012
-671.733
-667.387
-662.922
-658.289
-653.618
-648.843
-644.043
-638.922
-633.897
-628.446
-689.983
-693.066
-692.888
-690.949
-687.861
-684.137
-680.169
-676.007
-671.727
-667.378
-662.91
-658.287
-653.619
-648.855
-644.066
-638.984
-633.976
-628.74
-689.141
-694.215
-694.344
-691.742
-688.111
-684.17
-680.173
-676.032
-671.743
-667.376
-662.8
-658.192
-653.499
-648.536
-643.547
-638.049
-632.291
-625.248
-691.407
-694.289
-694.298
-691.725
-688.104
-684.172
-680.178
-676.04
-671.748
-667.386
-662.807
-658.199
-653.517
-648.549
-643.571
-638.089
-632.345
-625.53
-690.868
-694.166
-694.117
-691.654
-688.073
-684.162
-680.183
-676.052
-671.759
-667.402
-662.818
-658.21
-653.539
-648.569
-643.609
-638.153
-632.439
-625.934
-690.478
-694.092
-693.909
-691.555
-688.02
-684.138
-680.177
-676.053
-671.763
-667.412
-662.823
-658.223
-653.561
-648.592
-643.65
-638.229
-632.563
-626.38
-692.635
-694.305
-693.785
-691.473
-687.986
-684.128
-680.167
-676.04
-671.755
-667.408
-662.823
-658.233
-653.578
-648.614
-643.691
-638.312
-632.706
-626.81
-694.79
-694.633
-693.729
-691.407
-687.964
-684.127
-680.159
-676.02
-671.737
-667.389
-662.814
-658.241
-653.587
-648.635
-643.723
-638.397
-632.856
-627.19
-696.51
-695.017
-693.713
-691.358
-687.979
-684.151
-680.156
-676.003
-671.73
-667.378
-662.814
-658.248
-653.588
-648.658
-643.752
-638.48
-633.004
-627.484
-691.259
-696.654
-695.768
-692.43
-688.518
-684.421
-680.323
-676.063
-671.716
-667.365
-662.796
-658.142
-653.419
-648.499
-643.491
-638.063
-632.222
-625.222
-694.354
-696.907
-695.724
-692.412
-688.514
-684.421
-680.331
-676.074
-671.72
-667.376
-662.806
-658.149
-653.432
-648.512
-643.512
-638.1
-632.283
-625.483
-696.555
-696.995
-695.555
-692.341
-688.488
-684.411
-680.338
-676.085
-671.727
-667.392
-662.819
-658.16
-653.451
-648.53
-643.546
-638.161
-632.384
-625.853
-698.908
-697.105
-695.357
-692.25
-688.446
-684.386
-680.33
-676.085
-671.732
-667.405
-662.828
-658.171
-653.47
-648.551
-643.583
-638.236
-632.517
-626.256
-699.256
-697.256
-695.231
-692.184
-688.403
-684.353
-680.304
-676.068
-671.729
-667.406
-662.825
-658.181
-653.483
-648.571
-643.621
-638.314
-632.667
-626.644
-700.129
-697.464
-695.165
-692.144
-688.401
-684.358
-680.297
-676.055
-671.727
-667.393
-662.813
-658.188
-653.491
-648.59
-643.655
-638.391
-632.823
-627
-701.046
-697.793
-695.21
-692.13
-688.405
-684.372
-680.288
-676.045
-671.736
-667.383
-662.801
-658.193
-653.495
-648.611
-643.691
-638.469
-632.969
-627.301
-691.479
-696.778
-695.867
-692.483
-688.49
-684.379
-680.272
-676.014
-671.641
-667.236
-662.722
-658.112
-653.378
-648.485
-643.427
-638.016
-632.201
-625.281
-694.382
-696.962
-695.825
-692.461
-688.481
-684.379
-680.279
-676.023
-671.647
-667.242
-662.729
-658.119
-653.389
-648.498
-643.448
-638.051
-632.264
-625.531
-696.634
-697.048
-695.661
-692.385
-688.448
-684.37
-680.286
-676.034
-671.654
-667.252
-662.74
-658.132
-653.405
-648.52
-643.482
-638.109
-632.367
-625.884
-697.879
-697.167
-695.484
-692.289
-688.387
-684.335
-680.273
-676.031
-671.655
-667.26
-662.749
-658.146
-653.425
-648.546
-643.521
-638.181
-632.501
-626.264
-698.404
-697.304
-695.376
-692.226
-688.363
-684.32
-680.253
-676.015
-671.65
-667.262
-662.753
-658.158
-653.441
-648.572
-643.56
-638.259
-632.651
-626.628
-698.917
-697.596
-695.327
-692.175
-688.346
-684.302
-680.22
-675.99
-671.644
-667.257
-662.749
-658.164
-653.452
-648.593
-643.592
-638.334
-632.808
-626.952
-700.811
-698.047
-695.341
-692.133
-688.34
-684.297
-680.194
-675.968
-671.647
-667.262
-662.747
-658.17
-653.463
-648.612
-643.627
-638.405
-632.955
-627.239
-688.3
-695.119
-694.919
-691.921
-688.117
-684.152
-680.124
-675.937
-671.667
-667.271
-662.729
-658.12
-653.387
-648.522
-643.484
-638.085
-632.277
-625.301
-691.645
-695.35
-694.879
-691.9
-688.107
-684.153
-680.131
-675.943
-671.673
-667.28
-662.736
-658.127
-653.398
-648.536
-643.506
-638.12
-632.338
-625.588
-693.482
-695.37
-694.68
-691.806
-688.066
-684.142
-680.136
-675.95
-671.682
-667.292
-662.745
-658.141
-653.414
-648.559
-643.541
-638.185
-632.439
-625.984
-694.419
-695.294
-694.461
-691.71
-688.027
-684.129
-680.132
-675.949
-671.685
-667.297
-662.751
-658.154
-653.431
-648.586
-643.581
-638.261
-632.571
-626.404
-696.796
-695.489
-694.299
-691.601
-687.976
-684.108
-680.115
-675.934
-671.677
-667.291
-662.749
-658.16
-653.443
-648.61
-643.62
-638.34
-632.721
-626.795
-697.77
-695.629
-694.156
-691.504
-687.947
-684.1
-680.099
-675.92
-671.664
-667.276
-662.743
-658.164
-653.45
-648.633
-643.655
-638.416
-632.875
-627.132
-698.405
-695.679
-694.043
-691.411
-687.95
-684.123
-680.097
-675.905
-671.647
-667.26
-662.737
-658.163
-653.454
-648.655
-643.692
-638.495
-633.029
-627.415
-684.431
-692.834
-693.86
-691.428
-687.942
-684.043
-679.985
-675.81
-671.584
-667.248
-662.804
-658.14
-653.359
-648.43
-643.345
-637.84
-632.214
-625.142
-686.523
-692.912
-693.788
-691.403
-687.933
-684.042
-679.991
-675.815
-671.588
-667.254
-662.814
-658.152
-653.369
-648.448
-643.368
-637.874
-632.265
-625.435
-688.161
-692.967
-693.634
-691.333
-687.899
-684.028
-679.991
-675.82
-671.596
-667.264
-662.829
-658.169
-653.384
-648.474
-643.408
-637.938
-632.371
-625.908
-689.548
-693.024
-693.413
-691.226
-687.841
-683.995
-679.978
-675.817
-671.599
-667.271
-662.842
-658.184
-653.397
-648.506
-643.45
-638.022
-632.515
-626.424
-690.413
-693.053
-693.262
-691.157
-687.805
-683.968
-679.964
-675.809
-671.594
-667.268
-662.842
-658.195
-653.406
-648.539
-643.493
-638.12
-632.677
-626.912
-691.89
-693.382
-693.191
-691.096
-687.776
-683.954
-679.956
-675.797
-671.579
-667.251
-662.828
-658.195
-653.41
-648.567
-643.532
-638.227
-632.841
-627.336
-692.803
-693.661
-693.168
-691.047
-687.756
-683.953
-679.963
-675.808
-671.585
-667.246
-662.813
-658.189
-653.408
-648.594
-643.571
-638.335
-632.999
-627.662
-689.771
-695.287
-694.934
-691.841
-688.075
-684.187
-680.15
-675.911
-671.707
-667.287
-662.736
-658.177
-653.406
-648.538
-643.599
-638.227
-632.79
-626.015
-692.472
-695.441
-694.875
-691.811
-688.062
-684.188
-680.16
-675.914
-671.713
-667.298
-662.74
-658.188
-653.42
-648.548
-643.623
-638.26
-632.845
-626.299
-693.517
-695.232
-694.63
-691.719
-688.028
-684.18
-680.166
-675.918
-671.726
-667.312
-662.747
-658.205
-653.437
-648.567
-643.66
-638.316
-632.941
-626.715
-693.889
-695.167
-694.423
-691.634
-687.989
-684.16
-680.154
-675.914
-671.731
-667.319
-662.751
-658.223
-653.453
-648.589
-643.7
-638.387
-633.058
-627.14
-694.748
-695.168
-694.245
-691.559
-687.959
-684.136
-680.126
-675.902
-671.727
-667.313
-662.751
-658.234
-653.463
-648.612
-643.736
-638.459
-633.181
-627.511
-695.324
-695.234
-694.118
-691.492
-687.947
-684.129
-680.1
-675.892
-671.713
-667.293
-662.745
-658.239
-653.47
-648.635
-643.763
-638.525
-633.301
-627.802
-696.156
-695.372
-694.071
-691.459
-687.96
-684.127
-680.08
-675.89
-671.706
-667.277
-662.738
-658.231
-653.468
-648.659
-643.799
-638.592
-633.408
-628.019
-695.71
-696.33
-694.488
-691.581
-688.095
-684.195
-680.076
-675.854
-671.56
-667.202
-662.736
-658.186
-653.416
-648.539
-643.593
-638.32
-632.867
-627.316
-700.902
-697.663
-694.82
-691.662
-688.157
-684.261
-680.128
-675.894
-671.604
-667.234
-662.757
-658.213
-653.474
-648.624
-643.691
-638.536
-633.223
-627.845
-704.276
-699.269
-695.388
-691.863
-688.23
-684.366
-680.264
-676.013
-671.693
-667.301
-662.848
-658.298
-653.56
-648.762
-643.884
-638.84
-633.659
-628.418
-708.605
-701.061
-696.187
-692.243
-688.447
-684.518
-680.429
-676.176
-671.828
-667.384
-662.921
-658.38
-653.686
-648.936
-644.092
-639.15
-634.131
-629.099
-708.97
-701.805
-696.818
-692.686
-688.751
-684.757
-680.649
-676.402
-672.056
-667.608
-663.157
-658.586
-653.91
-649.22
-644.408
-639.595
-634.732
-629.804
-708.465
-701.441
-697.159
-693.153
-689.161
-685.075
-680.908
-676.633
-672.279
-667.826
-663.361
-658.814
-654.173
-649.544
-644.813
-640.071
-635.343
-630.638
-698.01
-699.375
-697.113
-693.667
-689.704
-685.564
-681.316
-677.015
-672.651
-668.18
-663.704
-659.223
-654.63
-650.009
-645.359
-640.748
-636.115
-631.448
-694.847
-699.811
-698.309
-694.84
-690.667
-686.246
-681.841
-677.506
-673.077
-668.547
-664.086
-659.62
-655.056
-650.48
-645.955
-641.448
-636.914
-632.38
-709.718
-705.698
-701.127
-696.336
-691.522
-686.939
-682.426
-677.996
-673.562
-669.032
-664.569
-660.157
-655.653
-651.135
-646.706
-642.296
-637.857
-633.413
-713.564
-708.237
-702.655
-697.524
-692.614
-687.949
-683.27
-678.613
-674.081
-669.532
-665.063
-660.663
-656.232
-651.774
-647.415
-643.099
-638.749
-634.498
-697.905
-696.957
-694.739
-691.779
-688.228
-684.335
-680.211
-675.963
-671.688
-667.271
-662.769
-658.256
-653.535
-648.706
-643.842
-638.635
-633.244
-627.737
-701.013
-698.029
-695.113
-691.886
-688.287
-684.395
-680.253
-676.016
-671.739
-667.299
-662.799
-658.271
-653.569
-648.765
-643.926
-638.832
-633.546
-628.212
-702.143
-699.225
-695.699
-692.127
-688.463
-684.569
-680.386
-676.108
-671.797
-667.349
-662.864
-658.336
-653.652
-648.875
-644.08
-639.062
-633.884
-628.704
-707.477
-701.065
-696.522
-692.512
-688.656
-684.71
-680.526
-676.282
-671.949
-667.46
-662.973
-658.436
-653.755
-649.027
-644.283
-639.373
-634.358
-629.336
-708.617
-702.772
-697.536
-693.141
-689.097
-685.015
-680.755
-676.473
-672.13
-667.645
-663.152
-658.606
-653.949
-649.278
-644.572
-639.727
-634.858
-629.982
-712.776
-704.218
-698.474
-693.806
-689.546
-685.356
-681.038
-676.758
-672.388
-667.878
-663.392
-658.862
-654.244
-649.643
-644.947
-640.217
-635.491
-630.724
-706.771
-702.578
-698.703
-694.459
-690.201
-685.885
-681.489
-677.139
-672.723
-668.216
-663.736
-659.214
-654.619
-650.024
-645.397
-640.777
-636.176
-631.559
-714.282
-706.385
-700.629
-695.968
-691.346
-686.699
-682.139
-677.68
-673.188
-668.631
-664.145
-659.652
-655.084
-650.562
-646.028
-641.485
-637.004
-632.476
-717.622
-709.724
-702.822
-697.458
-692.509
-687.593
-682.802
-678.208
-673.696
-669.1
-664.599
-660.155
-655.622
-651.099
-646.682
-642.257
-637.83
-633.504
-731.54
-715.36
-706.424
-699.663
-693.983
-688.76
-683.713
-678.939
-674.318
-669.686
-665.121
-660.68
-656.259
-651.812
-647.435
-643.088
-638.757
-634.542
-697.712
-695.431
-693.764
-691.244
-687.951
-684.191
-680.141
-675.919
-671.676
-667.267
-662.763
-658.227
-653.512
-648.689
-643.796
-638.642
-633.372
-627.937
-699.207
-696.522
-694.111
-691.352
-688.049
-684.282
-680.202
-675.992
-671.73
-667.287
-662.773
-658.242
-653.556
-648.775
-643.909
-638.846
-633.618
-628.341
-699.788
-697.829
-694.843
-691.704
-688.235
-684.428
-680.321
-676.106
-671.813
-667.365
-662.881
-658.337
-653.634
-648.874
-644.034
-639.042
-633.936
-628.788
-706.49
-700.15
-695.863
-692.224
-688.504
-684.607
-680.485
-676.284
-671.956
-667.469
-662.973
-658.423
-653.756
-649.056
-644.278
-639.376
-634.346
-629.324
-709.532
-701.842
-696.915
-692.935
-688.991
-684.939
-680.746
-676.515
-672.164
-667.686
-663.227
-658.643
-653.978
-649.303
-644.539
-639.709
-634.832
-629.971
-709.003
-702.898
-697.882
-693.676
-689.561
-685.376
-681.09
-676.812
-672.443
-667.937
-663.462
-658.871
-654.241
-649.634
-644.94
-640.204
-635.495
-630.673
-704.295
-701.875
-698.392
-694.474
-690.288
-685.963
-681.551
-677.208
-672.796
-668.262
-663.803
-659.284
-654.671
-650.076
-645.392
-640.748
-636.167
-631.507
-698.438
-702.285
-699.723
-695.67
-691.249
-686.747
-682.246
-677.801
-673.289
-668.686
-664.172
-659.692
-655.121
-650.602
-646.034
-641.483
-636.999
-632.456
-703.574
-704.06
-701.211
-697.052
-692.419
-687.644
-682.989
-678.373
-673.81
-669.207
-664.699
-660.24
-655.698
-651.196
-646.745
-642.271
-637.85
-633.491
-719.836
-712.944
-706.066
-699.856
-694.344
-689.015
-683.992
-679.129
-674.441
-669.816
-665.262
-660.763
-656.276
-651.845
-647.465
-643.097
-638.787
-634.546
-691.739
-693.619
-692.983
-690.948
-687.877
-684.162
-680.191
-675.992
-671.709
-667.351
-662.866
-658.282
-653.605
-648.802
-644.04
-639.031
-633.974
-628.954
-694.505
-694.564
-693.336
-691.049
-687.963
-684.263
-680.264
-676.052
-671.76
-667.369
-662.875
-658.306
-653.626
-648.88
-644.137
-639.181
-634.13
-629.246
-694.573
-695.535
-693.952
-691.325
-688.097
-684.399
-680.392
-676.134
-671.815
-667.429
-662.944
-658.382
-653.685
-648.987
-644.242
-639.356
-634.388
-629.495
-696.012
-696.688
-694.727
-691.738
-688.356
-684.598
-680.577
-676.322
-671.954
-667.53
-663.023
-658.473
-653.814
-649.145
-644.442
-639.586
-634.66
-629.882
-699.79
-698.831
-695.939
-692.505
-688.838
-684.925
-680.796
-676.51
-672.123
-667.726
-663.232
-658.622
-653.996
-649.353
-644.673
-639.905
-635.088
-630.365
-705.187
-701.704
-697.467
-693.45
-689.43
-685.381
-681.171
-676.832
-672.437
-667.97
-663.457
-658.866
-654.294
-649.694
-645.035
-640.363
-635.69
-630.976
-713.329
-704.22
-699.034
-694.58
-690.212
-685.944
-681.616
-677.228
-672.817
-668.319
-663.806
-659.257
-654.692
-650.101
-645.453
-640.843
-636.279
-631.702
-712.698
-707.155
-701.213
-696.193
-691.497
-686.929
-682.367
-677.818
-673.286
-668.724
-664.204
-659.696
-655.172
-650.617
-646.047
-641.555
-637.071
-632.565
-709.779
-706.422
-702.036
-697.481
-692.693
-687.94
-683.189
-678.499
-673.859
-669.26
-664.739
-660.225
-655.721
-651.189
-646.71
-642.294
-637.895
-633.565
-728.271
-716.175
-707.791
-700.93
-694.892
-689.484
-684.307
-679.319
-674.53
-669.913
-665.327
-660.787
-656.326
-651.871
-647.475
-643.128
-638.803
-634.533
-699.121
-695.724
-693.853
-691.36
-688.027
-684.222
-680.189
-675.986
-671.69
-667.323
-662.795
-658.242
-653.554
-648.672
-643.754
-638.533
-633.198
-627.823
-699.352
-696.501
-694.166
-691.421
-688.076
-684.295
-680.237
-676.028
-671.75
-667.349
-662.826
-658.283
-653.598
-648.757
-643.829
-638.708