/*--------------------------------*- C++ -*----------------------------------*\
| =========                 |                                                 |
| \\      /  F ield         | OpenFOAM: The Open Source CFD Toolbox           |
|  \\    /   O peration     | Version:  3.0.1                                 |
|   \\  /    A nd           | Web:      www.OpenFOAM.org                      |
|    \\/     M anipulation  |                                                 |
\*---------------------------------------------------------------------------*/
FoamFile
{
    version     2.0;
    format      ascii;
    class       volScalarField;
    location    "0.1";
    object      p_mode_2;
}
// * * * * * * * * * * * * * * * * * * * * * * * * * * * * * * * * * * * * * //

dimensions      [0 0 0 0 0 0 0];

internalField   nonuniform List<scalar> 
244500
(
-11.4834
-3.24196
-0.623491
-0.646679
-1.02685
-1.35043
-1.64294
-1.80283
-1.91415
-2.10051
-2.18986
-2.22015
-2.36679
-2.4575
-2.53096
-2.86643
-3.39615
-4.88213
-10.6821
-3.16883
-0.685223
-0.676703
-1.04484
-1.35474
-1.64687
-1.80851
-1.91326
-2.10244
-2.19403
-2.21693
-2.36649
-2.46378
-2.52569
-2.86349
-3.3935
-4.70187
-8.6069
-3.0914
-0.846596
-0.758301
-1.08763
-1.37645
-1.66202
-1.81631
-1.91407
-2.10804
-2.20157
-2.21453
-2.36927
-2.47129
-2.52037
-2.85498
-3.37536
-4.46507
-5.69716
-2.88259
-1.03344
-0.861088
-1.14519
-1.41833
-1.69439
-1.83655
-1.92629
-2.12094
-2.2137
-2.21796
-2.37591
-2.47686
-2.5135
-2.8355
-3.32562
-4.19236
-4.91145
-2.71283
-1.17402
-0.948716
-1.19125
-1.47009
-1.73942
-1.87119
-1.95501
-2.14541
-2.23271
-2.23205
-2.38809
-2.48082
-2.50509
-2.80116
-3.23953
-3.90521
-3.2924
-2.33414
-1.22374
-1.01054
-1.21699
-1.50637
-1.77924
-1.91488
-2.00237
-2.18068
-2.26179
-2.26087
-2.40563
-2.48308
-2.495
-2.75506
-3.1199
-3.61084
-1.59136
-1.84211
-1.21097
-1.06759
-1.24967
-1.54757
-1.81648
-1.95673
-2.05218
-2.21202
-2.28615
-2.2885
-2.41555
-2.47706
-2.48344
-2.7018
-2.97933
-3.32146
-11.6199
-4.23811
-1.53226
-1.27261
-1.49927
-1.73703
-1.93629
-2.07531
-2.17225
-2.35548
-2.55307
-2.64777
-2.81345
-3.07493
-3.33917
-3.80653
-4.51756
-6.11923
-10.1209
-4.20646
-1.60814
-1.30821
-1.51676
-1.74125
-1.93747
-2.07634
-2.16889
-2.35128
-2.55685
-2.64933
-2.81006
-3.07908
-3.33893
-3.8028
-4.50783
-5.9803
-9.52446
-4.30798
-1.83232
-1.41428
-1.56925
-1.76516
-1.94899
-2.08122
-2.1677
-2.35072
-2.56316
-2.65055
-2.80766
-3.08434
-3.33822
-3.79674
-4.47329
-5.7653
-8.66805
-4.34432
-2.07684
-1.5428
-1.64135
-1.81178
-1.98003
-2.10043
-2.17918
-2.36107
-2.57368
-2.65408
-2.80657
-3.08601
-3.32933
-3.76587
-4.40585
-5.49068
-7.00154
-4.26486
-2.29626
-1.66856
-1.70786
-1.86496
-2.02608
-2.13412
-2.20863
-2.38401
-2.58943
-2.66237
-2.80996
-3.08255
-3.31232
-3.71091
-4.30035
-5.18438
-6.02891
-4.08753
-2.4299
-1.77091
-1.74667
-1.90051
-2.06659
-2.17399
-2.24906
-2.41529
-2.60271
-2.67177
-2.81774
-3.07192
-3.28755
-3.63821
-4.15792
-4.85683
-4.69941
-3.84294
-2.52708
-1.86695
-1.78835
-1.93816
-2.1117
-2.22705
-2.30695
-2.45549
-2.61839
-2.6816
-2.82544
-3.0523
-3.25128
-3.55077
-3.99087
-4.52528
-16.92
-7.23416
-3.54179
-2.6108
-2.39161
-2.33298
-2.259
-2.27406
-2.3204
-2.39566
-2.55761
-2.57587
-2.54498
-2.7417
-2.79424
-2.82924
-2.98777
-3.05388
-15.3521
-7.22738
-3.63441
-2.65141
-2.41136
-2.34139
-2.26039
-2.27332
-2.32093
-2.39271
-2.56177
-2.5833
-2.5391
-2.74327
-2.80244
-2.82173
-2.98939
-3.12009
-14.7975
-7.33679
-3.84154
-2.74872
-2.45956
-2.36613
-2.2691
-2.27886
-2.32514
-2.39237
-2.57119
-2.59089
-2.53133
-2.74679
-2.80886
-2.81169
-3.00213
-3.18733
-13.5136
-7.41307
-4.12971
-2.89382
-2.53846
-2.41702
-2.30297
-2.30333
-2.34195
-2.40206
-2.58608
-2.59872
-2.52645
-2.7513
-2.81096
-2.79913
-3.00402
-3.2352
-11.7452
-7.31075
-4.34377
-3.01812
-2.59975
-2.45876
-2.34758
-2.34522
-2.37194
-2.42338
-2.60607
-2.60558
-2.52985
-2.75408
-2.80604
-2.78529
-2.99086
-3.24125
-10.7501
-7.22051
-4.51505
-3.14085
-2.66797
-2.51518
-2.41464
-2.404
-2.41148
-2.45516
-2.62634
-2.61289
-2.54821
-2.75869
-2.79453
-2.76911
-2.95867
-3.1982
-9.91976
-7.1297
-4.67732
-3.27555
-2.72243
-2.55228
-2.47155
-2.46539
-2.46013
-2.49526
-2.64189
-2.61074
-2.56571
-2.75603
-2.77521
-2.76296
-2.92025
-3.104
-17.1714
-7.7291
-4.099
-3.24861
-2.95947
-2.82659
-2.67828
-2.58203
-2.60848
-2.65187
-2.69089
-2.72832
-2.7235
-2.84157
-2.88016
-3.04739
-3.09418
-3.34391
-15.4928
-7.61175
-4.17724
-3.29128
-2.98297
-2.83454
-2.68109
-2.57953
-2.60869
-2.65414
-2.69276
-2.73154
-2.72281
-2.84222
-2.88247
-3.04408
-3.10029
-3.3377
-13.5156
-7.63198
-4.44265
-3.42188
-3.04425
-2.86427
-2.69263
-2.58113
-2.61265
-2.65968
-2.69695
-2.73603
-2.72146
-2.84404
-2.88234
-3.03884
-3.10393
-3.30947
-11.9961
-7.66647
-4.72901
-3.56989
-3.12494
-2.9168
-2.728
-2.60236
-2.63041
-2.67121
-2.70653
-2.74147
-2.72175
-2.84562
-2.88104
-3.02894
-3.09157
-3.26343
-10.6368
-7.65993
-4.98677
-3.7169
-3.20448
-2.97957
-2.78335
-2.64903
-2.6634
-2.69216
-2.72157
-2.74967
-2.72735
-2.8475
-2.87646
-3.01352
-3.06386
-3.20456
-9.24669
-7.5306
-5.1974
-3.87307
-3.2919
-3.04987
-2.85327
-2.71469
-2.70793
-2.71817
-2.74246
-2.76053
-2.73814
-2.85007
-2.86772
-2.98991
-3.02624
-3.13226
-9.49415
-7.44682
-5.35085
-3.99199
-3.3513
-3.093
-2.9105
-2.78146
-2.75003
-2.74065
-2.76029
-2.76881
-2.75558
-2.85375
-2.86145
-2.95539
-2.97976
-3.05494
-20.5612
-9.49436
-5.05403
-3.75539
-3.28177
-3.05489
-2.8596
-2.65723
-2.452
-2.42802
-2.44029
-2.51885
-2.50527
-2.48964
-2.57237
-2.59844
-2.58399
-2.86161
-18.7605
-9.40553
-5.12784
-3.79354
-3.30132
-3.06457
-2.8667
-2.66456
-2.45231
-2.42848
-2.44021
-2.52077
-2.50891
-2.48681
-2.57498
-2.60473
-2.58269
-2.86555
-16.9039
-9.35922
-5.34346
-3.91413
-3.36135
-3.09748
-2.88581
-2.67365
-2.45408
-2.43134
-2.44351
-2.52569
-2.51424
-2.48138
-2.57936
-2.60965
-2.58081
-2.8587
-14.4091
-9.29558
-5.60797
-4.06362
-3.44764
-3.15206
-2.92171
-2.69658
-2.46938
-2.44398
-2.45615
-2.53487
-2.51952
-2.47498
-2.58415
-2.60845
-2.57494
-2.83061
-13.2163
-9.18033
-5.84608
-4.21564
-3.52948
-3.20265
-2.96329
-2.73378
-2.50585
-2.47265
-2.47977
-2.54826
-2.5272
-2.47024
-2.58828
-2.59833
-2.56303
-2.78574
-12.3523
-9.00217
-6.06272
-4.39391
-3.61835
-3.253
-3.00536
-2.78437
-2.56118
-2.51876
-2.51727
-2.56529
-2.53869
-2.47239
-2.59377
-2.58349
-2.53851
-2.72843
-11.8342
-8.82901
-6.21132
-4.551
-3.6958
-3.29748
-3.04647
-2.84105
-2.62602
-2.56854
-2.55872
-2.57331
-2.53795
-2.48008
-2.59128
-2.57648
-2.5249
-2.65588
-18.9029
-7.76121
-4.16014
-3.29686
-3.06094
-2.98108
-2.81662
-2.6395
-2.58665
-2.58205
-2.56702
-2.57139
-2.55377
-2.48662
-2.46935
-2.49034
-2.43933
-2.52736
-16.6521
-7.66642
-4.23725
-3.34545
-3.0875
-2.99257
-2.82395
-2.6407
-2.58725
-2.58393
-2.56751
-2.5726
-2.55743
-2.48871
-2.46875
-2.49302
-2.44215
-2.53075
-14.2203
-7.5247
-4.47949
-3.48584
-3.16106
-3.03061
-2.84241
-2.64541
-2.59356
-2.58917
-2.57154
-2.57705
-2.56257
-2.48992
-2.46643
-2.49601
-2.45063
-2.53315
-11.482
-7.41888
-4.72175
-3.63458
-3.25878
-3.09292
-2.87815
-2.66894
-2.61263
-2.60214
-2.581
-2.58542
-2.57046
-2.49235
-2.46529
-2.49487
-2.45343
-2.52787
-10.0988
-7.33266
-4.97822
-3.80958
-3.37005
-3.16953
-2.9309
-2.71648
-2.65157
-2.62645
-2.60025
-2.59899
-2.58156
-2.49779
-2.46631
-2.49297
-2.44828
-2.50772
-8.98359
-7.15618
-5.20358
-3.97625
-3.47185
-3.22978
-2.98323
-2.77529
-2.70145
-2.6553
-2.62419
-2.61647
-2.59817
-2.51004
-2.46966
-2.49181
-2.43443
-2.46913
-7.41415
-6.88835
-5.38857
-4.14756
-3.56894
-3.27661
-3.0348
-2.84831
-2.76006
-2.68929
-2.65251
-2.63198
-2.61083
-2.5262
-2.47618
-2.48909
-2.41718
-2.41663
-8.91112
-4.48455
-2.52252
-2.32933
-2.36711
-2.40192
-2.36831
-2.2955
-2.24917
-2.20782
-2.12475
-2.09134
-2.01806
-1.93835
-1.86456
-1.73422
-1.61595
-1.86241
-8.34135
-4.53831
-2.62815
-2.38235
-2.39556
-2.41306
-2.37409
-2.29606
-2.25037
-2.2114
-2.12615
-2.09248
-2.02035
-1.93701
-1.86954
-1.73738
-1.61711
-1.8387
-8.53457
-4.88767
-2.96696
-2.54204
-2.46878
-2.45159
-2.39189
-2.30277
-2.25427
-2.21679
-2.12767
-2.09541
-2.02423
-1.93765
-1.87771
-1.73861
-1.62493
-1.81593
-7.47904
-5.17485
-3.32551
-2.71288
-2.55638
-2.51181
-2.42899
-2.32339
-2.27137
-2.23054
-2.13623
-2.10422
-2.03523
-1.94287
-1.8922
-1.74541
-1.62869
-1.78833
-6.29456
-5.40941
-3.70566
-2.9175
-2.66789
-2.59251
-2.48645
-2.3659
-2.30793
-2.25588
-2.15797
-2.12307
-2.0547
-1.9571
-1.91019
-1.7547
-1.62856
-1.75943
-7.98348
-5.8366
-4.06476
-3.11634
-2.75849
-2.64864
-2.52972
-2.41113
-2.35722
-2.29745
-2.19913
-2.15744
-2.08728
-1.98099
-1.93048
-1.76813
-1.62615
-1.7243
-9.13029
-6.19219
-4.37484
-3.31125
-2.86864
-2.73267
-2.59497
-2.46884
-2.41024
-2.33984
-2.24405
-2.1919
-2.12437
-2.0128
-1.94775
-1.78379
-1.62699
-1.66841
-14.2514
-5.06322
-1.84916
-1.47755
-1.67828
-1.91144
-2.06914
-2.12421
-2.09838
-2.21674
-2.21104
-2.21071
-2.18582
-2.09485
-2.07349
-1.98113
-1.84397
-2.0898
-12.7186
-4.90228
-1.89588
-1.50997
-1.69795
-1.91986
-2.07449
-2.1305
-2.09621
-2.21746
-2.21421
-2.20989
-2.18945
-2.09211
-2.07559
-1.9815
-1.83874
-2.07254
-10.3219
-4.87963
-2.1143
-1.61844
-1.75685
-1.94759
-2.09077
-2.1397
-2.09493
-2.22243
-2.21868
-2.2105
-2.1952
-2.08888
-2.08165
-1.977
-1.84255
-2.05
-8.86995
-4.86024
-2.35157
-1.74931
-1.8374
-1.99726
-2.12556
-2.16047
-2.10654
-2.2369
-2.229
-2.21493
-2.20504
-2.08769
-2.09261
-1.97542
-1.84268
-2.00777
-8.07193
-4.75033
-2.53344
-1.86727
-1.91111
-2.05579
-2.17819
-2.19732
-2.14026
-2.2648
-2.24855
-2.22681
-2.2197
-2.09117
-2.10693
-1.97443
-1.84471
-1.97188
-6.60637
-4.51615
-2.67275
-1.9927
-1.96942
-2.09239
-2.22325
-2.24054
-2.19017
-2.30493
-2.28018
-2.25109
-2.24243
-2.10704
-2.12461
-1.97539
-1.8451
-1.94429
-4.85249
-4.2272
-2.74684
-2.08282
-2.0183
-2.13828
-2.2785
-2.29295
-2.25564
-2.34807
-2.31349
-2.27315
-2.26085
-2.13036
-2.14456
-1.99062
-1.85589
-1.91889
-8.71574
-1.9159
0.0582159
-0.229742
-0.703294
-1.19007
-1.56442
-1.75644
-1.82606
-1.92123
-1.80832
-1.71428
-1.46372
-0.976514
-0.264436
0.755038
2.49018
4.34835
-6.65699
-1.86861
-0.0181124
-0.265385
-0.720768
-1.19364
-1.56992
-1.75996
-1.82542
-1.92507
-1.81079
-1.71358
-1.47213
-0.979226
-0.272004
0.758777
2.51128
4.22856
-6.58594
-2.02847
-0.254491
-0.37325
-0.771095
-1.22065
-1.58837
-1.76942
-1.82764
-1.93428
-1.81347
-1.7174
-1.48471
-0.982209
-0.289366
0.748832
2.44265
4.0634
-6.65904
-2.15607
-0.52028
-0.496232
-0.842798
-1.27706
-1.62767
-1.79454
-1.84472
-1.95334
-1.82547
-1.72793
-1.50808
-0.994929
-0.33189
0.697366
2.30793
3.80287
-5.36987
-2.1012
-0.746097
-0.616712
-0.918653
-1.34297
-1.68087
-1.83408
-1.87907
-1.98351
-1.85206
-1.75257
-1.54491
-1.02562
-0.405392
0.597243
2.09643
3.42461
-4.03885
-1.87174
-0.868662
-0.710809
-0.990518
-1.41078
-1.72951
-1.87529
-1.92447
-2.01944
-1.89144
-1.79006
-1.58808
-1.07936
-0.511577
0.446442
1.81189
2.95683
-2.12486
-1.37804
-0.886168
-0.791475
-1.04379
-1.46466
-1.77928
-1.91929
-1.97338
-2.06227
-1.94321
-1.83997
-1.63879
-1.1449
-0.640919
0.245361
1.4637
2.45071
-10.2102
-2.38848
0.102741
0.00815475
-0.395609
-0.879197
-1.3236
-1.65529
-1.911
-2.05714
-2.09586
-2.09995
-2.15585
-2.2186
-2.11231
-2.21667
-2.09767
-2.80017
-8.39965
-2.27289
0.0509333
-0.0235315
-0.414084
-0.881868
-1.32487
-1.65554
-1.91203
-2.06144
-2.09887
-2.09874
-2.15375
-2.22273
-2.10994
-2.20376
-2.09958
-2.63657
-7.39866
-2.41047
-0.20484
-0.137387
-0.463285
-0.907188
-1.33782
-1.6623
-1.91779
-2.06678
-2.10224
-2.09774
-2.1533
-2.22914
-2.1101
-2.19305
-2.11304
-2.40584
-6.62858
-2.45696
-0.421628
-0.236799
-0.521338
-0.958674
-1.37433
-1.684
-1.93626
-2.07638
-2.10904
-2.09905
-2.15754
-2.23665
-2.1144
-2.18307
-2.11598
-2.19135
-5.7594
-2.41322
-0.631563
-0.335413
-0.582793
-1.02772
-1.42812
-1.72293
-1.96858
-2.09442
-2.12628
-2.1106
-2.16908
-2.24514
-2.12674
-2.17477
-2.10899
-2.01599
-5.67678
-2.31855
-0.791308
-0.437511
-0.645592
-1.09695
-1.47998
-1.76582
-2.00425
-2.11895
-2.15733
-2.13814
-2.19035
-2.25385
-2.14669
-2.17353
-2.09377
-1.88222
-4.54871
-2.12599
-0.877597
-0.514622
-0.690301
-1.14418
-1.5215
-1.81224
-2.03515
-2.14064
-2.19409
-2.17622
-2.21961
-2.26214
-2.16863
-2.17434
-2.0657
-1.78527
-11.4541
-3.20977
-0.606725
-0.603755
-0.983835
-1.32335
-1.5827
-1.74421
-1.85267
-1.99791
-2.07598
-2.07303
-2.15139
-2.19588
-2.16938
-2.31878
-2.66901
-3.80992
-10.6522
-3.13697
-0.669876
-0.635522
-1.00099
-1.32936
-1.58676
-1.74857
-1.85269
-1.99941
-2.08036
-2.07071
-2.15082
-2.20212
-2.1674
-2.31283
-2.66666
-3.65789
-8.57704
-3.0603
-0.833251
-0.716861
-1.04298
-1.3527
-1.60074
-1.7569
-1.85449
-2.00403
-2.08864
-2.06955
-2.15315
-2.21164
-2.16692
-2.3091
-2.65963
-3.48027
-5.66802
-2.85353
-1.02191
-0.820346
-1.10248
-1.3958
-1.63139
-1.77935
-1.86755
-2.01675
-2.10339
-2.07579
-2.161
-2.22251
-2.1677
-2.2968
-2.63364
-3.28781
-4.8833
-2.68639
-1.16321
-0.908264
-1.15345
-1.447
-1.67605
-1.81728
-1.89657
-2.04193
-2.12657
-2.09233
-2.17606
-2.23376
-2.17088
-2.27944
-2.58562
-3.09184
-3.26518
-2.31052
-1.21305
-0.971019
-1.18414
-1.48026
-1.71631
-1.86579
-1.94095
-2.07957
-2.16052
-2.12317
-2.19946
-2.24681
-2.17646
-2.26063
-2.51779
-2.89135
-1.56312
-1.82233
-1.20171
-1.03054
-1.22173
-1.51706
-1.75639
-1.91243
-1.9871
-2.11703
-2.19043
-2.15174
-2.21832
-2.25498
-2.18196
-2.24075
-2.43898
-2.69681
-11.5862
-4.19202
-1.48958
-1.23315
-1.44589
-1.69376
-1.88809
-1.99648
-2.10652
-2.26443
-2.4266
-2.51667
-2.63098
-2.8462
-3.05774
-3.42797
-4.05662
-5.42401
-10.0885
-4.16096
-1.56352
-1.26837
-1.46299
-1.6972
-1.8902
-1.99646
-2.10293
-2.26187
-2.42845
-2.51887
-2.62892
-2.8495
-3.05921
-3.42372
-4.04836
-5.29315
-9.49359
-4.26195
-1.78644
-1.3737
-1.51443
-1.7216
-1.9026
-1.99952
-2.10173
-2.26348
-2.43309
-2.52179
-2.62732
-2.85465
-3.0613
-3.41644
-4.02298
-5.10356
-8.64236
-4.29696
-2.02864
-1.50077
-1.58664
-1.76795
-1.93404
-2.01844
-2.11464
-2.27437
-2.44288
-2.52719
-2.62642
-2.85822
-3.05724
-3.39061
-3.97074
-4.86913
-6.98334
-4.21368
-2.2453
-1.62552
-1.65285
-1.82198
-1.9789
-2.05412
-2.14594
-2.29755
-2.45955
-2.53844
-2.63029
-2.85913
-3.04723
-3.34646
-3.8873
-4.61089
-6.02143
-4.03359
-2.37813
-1.72657
-1.69423
-1.85685
-2.01757
-2.09659
-2.1884
-2.32899
-2.47561
-2.55058
-2.63912
-2.85618
-3.03265
-3.29056
-3.77472
-4.33368
-4.6957
-3.78969
-2.47428
-1.82229
-1.73813
-1.89358
-2.06101
-2.15472
-2.24657
-2.36804
-2.49676
-2.56161
-2.6487
-2.84788
-3.00662
-3.22541
-3.64088
-4.04754
-16.8439
-7.17001
-3.48657
-2.55548
-2.33547
-2.29704
-2.20479
-2.20259
-2.25831
-2.30864
-2.44422
-2.44241
-2.36655
-2.53334
-2.52229
-2.45454
-2.58401
-2.53796
-15.2732
-7.16032
-3.57871
-2.59623
-2.35457
-2.30553
-2.20611
-2.20117
-2.25963
-2.30604
-2.44739
-2.45037
-2.35933
-2.53429
-2.53239
-2.44388
-2.58308
-2.61354
-14.7132
-7.2664
-3.78665
-2.6929
-2.40165
-2.33177
-2.21511
-2.20473
-2.26487
-2.30681
-2.4562
-2.45928
-2.35111
-2.53893
-2.54197
-2.43051
-2.60209
-2.70011
-13.421
-7.34106
-4.07498
-2.83564
-2.4809
-2.38378
-2.24772
-2.22927
-2.28371
-2.31637
-2.47233
-2.46864
-2.34564
-2.54589
-2.54787
-2.41958
-2.61135
-2.77558
-11.6404
-7.2382
-4.28845
-2.95946
-2.54305
-2.42596
-2.29095
-2.27296
-2.3148
-2.33714
-2.49432
-2.47855
-2.35107
-2.55408
-2.54947
-2.41254
-2.6124
-2.81227
-10.6282
-7.14444
-4.4561
-3.08001
-2.61183
-2.48243
-2.35662
-2.33467
-2.35564
-2.36877
-2.5185
-2.48883
-2.37172
-2.56541
-2.5464
-2.40979
-2.59749
-2.8004
-9.78266
-7.04461
-4.61544
-3.21548
-2.67103
-2.5177
-2.41315
-2.39899
-2.40352
-2.40964
-2.53947
-2.49043
-2.39318
-2.57009
-2.5368
-2.4225
-2.58334
-2.73817
-17.1161
-7.67479
-4.06747
-3.21344
-2.92219
-2.78933
-2.62778
-2.52639
-2.55207
-2.59004
-2.60269
-2.63066
-2.61669
-2.69421
-2.71011
-2.85839
-2.85338
-3.06244
-15.4384
-7.56124
-4.14692
-3.25612
-2.94433
-2.79821
-2.63062
-2.52362
-2.5523
-2.59275
-2.6049
-2.63306
-2.61712
-2.69476
-2.71101
-2.85567
-2.85936
-3.05631
-13.4645
-7.5849
-4.41182
-3.38537
-3.00565
-2.8286
-2.64212
-2.52457
-2.55669
-2.59858
-2.60915
-2.63664
-2.61798
-2.69718
-2.7109
-2.85244
-2.86549
-3.02928
-11.9471
-7.62244
-4.69614
-3.53259
-3.0854
-2.88011
-2.67697
-2.54618
-2.57414
-2.61152
-2.61837
-2.64288
-2.6206
-2.69846
-2.70981
-2.84717
-2.8575
-2.98819
-10.5906
-7.62133
-4.95308
-3.67685
-3.1675
-2.94232
-2.73282
-2.59381
-2.60811
-2.63294
-2.63431
-2.65236
-2.62794
-2.70281
-2.70906
-2.83655
-2.83627
-2.93892
-9.20476
-7.49751
-5.16338
-3.83368
-3.2574
-3.01044
-2.80346
-2.66094
-2.65337
-2.65903
-2.65582
-2.66541
-2.64009
-2.70849
-2.70481
-2.8182
-2.80711
-2.87989
-9.46251
-7.41332
-5.31265
-3.95216
-3.31673
-3.0519
-2.86129
-2.72878
-2.69649
-2.68227
-2.67553
-2.67671
-2.65721
-2.71719
-2.70553
-2.78876
-2.77086
-2.82374
-20.508
-9.45364
-5.0143
-3.71611
-3.25299
-3.02127
-2.82433
-2.62439
-2.40475
-2.37952
-2.38898
-2.44316
-2.41806
-2.40978
-2.44351
-2.43451
-2.44758
-2.68454
-18.7065
-9.36447
-5.08858
-3.75399
-3.27334
-3.03141
-2.83104
-2.632
-2.40518
-2.37927
-2.38948
-2.4449
-2.42101
-2.40819
-2.44717
-2.43726
-2.4464
-2.69568
-16.8447
-9.3163
-5.30419
-3.87506
-3.33472
-3.06427
-2.84949
-2.642
-2.40658
-2.38155
-2.39431
-2.44961
-2.42462
-2.40568
-2.45244
-2.43855
-2.44903
-2.69794
-14.344
-9.25052
-5.56769
-4.02661
-3.42407
-3.11838
-2.88662
-2.66558
-2.42156
-2.39472
-2.40775
-2.45885
-2.43004
-2.4025
-2.4589
-2.43492
-2.44851
-2.68183
-13.1451
-9.12888
-5.80399
-4.18109
-3.50683
-3.16903
-2.92944
-2.70348
-2.45797
-2.42498
-2.43262
-2.47273
-2.43841
-2.40133
-2.46564
-2.42585
-2.44187
-2.64746
-12.2742
-8.94606
-6.02076
-4.36161
-3.59522
-3.21854
-2.97324
-2.75372
-2.51337
-2.47182
-2.47019
-2.49106
-2.45135
-2.40613
-2.47418
-2.41627
-2.42362
-2.60165
-11.7474
-8.7704
-6.16879
-4.52059
-3.67136
-3.26369
-3.0159
-2.81004
-2.58035
-2.52304
-2.51242
-2.50201
-2.45347
-2.41472
-2.47789
-2.41656
-2.41473
-2.54391
-18.8753
-7.73019
-4.1307
-3.27755
-3.03821
-2.95418
-2.80408
-2.61733
-2.56694
-2.55877
-2.5362
-2.54643
-2.5136
-2.44006
-2.43584
-2.41846
-2.36953
-2.50835
-16.6244
-7.63559
-4.20797
-3.32587
-3.06401
-2.96483
-2.81105
-2.61805
-2.56757
-2.56114
-2.53643
-2.54822
-2.51756
-2.44071
-2.43659
-2.4219
-2.36889
-2.51557
-14.1964
-7.49229
-4.44905
-3.46628
-3.13679
-3.00342
-2.83027
-2.62291
-2.57381
-2.56733
-2.53958
-2.55357
-2.5225
-2.44065
-2.4366
-2.42325
-2.37452
-2.52466
-11.4624
-7.38639
-4.69156
-3.6162
-3.23313
-3.06544
-2.86675
-2.64678
-2.59398
-2.5807
-2.54875
-2.5635
-2.52956
-2.44232
-2.43796
-2.42176
-2.37553
-2.52662
-10.0832
-7.30308
-4.95106
-3.79197
-3.34225
-3.14309
-2.92003
-2.69338
-2.6347
-2.60451
-2.56871
-2.57782
-2.53975
-2.44839
-2.44012
-2.41943
-2.37025
-2.51307
-8.97177
-7.1241
-5.17943
-3.95911
-3.44204
-3.20506
-2.97244
-2.75202
-2.68564
-2.63214
-2.59394
-2.59574
-2.55474
-2.46345
-2.44441
-2.41862
-2.35928
-2.47733
-7.40623
-6.85901
-5.36851
-4.12975
-3.53866
-3.25395
-3.02377
-2.82532
-2.7452
-2.66437
-2.62488
-2.61219
-2.56638
-2.48315
-2.44936
-2.41846
-2.34737
-2.42882
-8.92231
-4.47847
-2.50067
-2.33644
-2.35941
-2.39896
-2.38249
-2.2895
-2.24579
-2.22425
-2.12378
-2.09251
-2.03614
-1.93752
-1.87707
-1.73145
-1.61545
-1.86556
-8.35249
-4.53153
-2.60502
-2.3911
-2.38927
-2.40824
-2.388
-2.29116
-2.24574
-2.22871
-2.12523
-2.09215
-2.03989
-1.93587
-1.88179
-1.73546
-1.61529
-1.84343
-8.54579
-4.88057
-2.94764
-2.55288
-2.46318
-2.4455
-2.40665
-2.29694
-2.24841
-2.23469
-2.12649
-2.09405
-2.04551
-1.9361
-1.89005
-1.7363
-1.62187
-1.82158
-7.48951
-5.16646
-3.31023
-2.72494
-2.54889
-2.50606
-2.44421
-2.31614
-2.26525
-2.24828
-2.13486
-2.10279
-2.05749
-1.94088
-1.90485
-1.74237
-1.62435
-1.79501
-6.30373
-5.39695
-3.69322
-2.9304
-2.65854
-2.58786
-2.50086
-2.35717
-2.30261
-2.2739
-2.15622
-2.12179
-2.07732
-1.95446
-1.92284
-1.75068
-1.62413
-1.76714
-7.98668
-5.82647
-4.05614
-3.12932
-2.7471
-2.64647
-2.54153
-2.40187
-2.35411
-2.31354
-2.19724
-2.15782
-2.10855
-1.97733
-1.94358
-1.76186
-1.62136
-1.73405
-9.13102
-6.1818
-4.36703
-3.32257
-2.85577
-2.73225
-2.6034
-2.46059
-2.40939
-2.35262
-2.24302
-2.19304
-2.14289
-2.01078
-1.95997
-1.77566
-1.6224
-1.6757
-14.2641
-5.05879
-1.87002
-1.50429
-1.67076
-1.93369
-2.09049
-2.13672
-2.12803
-2.24157
-2.24837
-2.24603
-2.23665
-2.1594
-2.13394
-2.04079
-1.90908
-2.13307
-12.7289
-4.89833
-1.91718
-1.53798
-1.69077
-1.94217
-2.09792
-2.14187
-2.12623
-2.2429
-2.25135
-2.24528
-2.23995
-2.15773
-2.13654
-2.04038
-1.90387
-2.11818
-10.3307
-4.87458
-2.1345
-1.6479
-1.74863
-1.97163
-2.11452
-2.14908
-2.12596
-2.24701
-2.2564
-2.24525
-2.2436
-2.1554
-2.14104
-2.03633
-1.90833
-2.09789
-8.87484
-4.8534
-2.37334
-1.77861
-1.829
-2.02368
-2.14764
-2.1696
-2.13894
-2.26097
-2.26741
-2.24815
-2.25185
-2.15467
-2.15044
-2.03334
-1.90735
-2.05654
-8.06839
-4.74226
-2.55862
-1.89268
-1.90314
-2.08446
-2.19694
-2.20767
-2.17284
-2.28732
-2.28773
-2.25823
-2.26582
-2.15887
-2.16234
-2.03122
-1.90861
-2.01829
-6.60945
-4.50967
-2.70083
-2.01381
-1.96447
-2.12071
-2.23717
-2.25294
-2.22248
-2.32589
-2.32072
-2.27939
-2.28789
-2.1736
-2.17706
-2.03012
-1.90792
-1.98583
-4.85896
-4.2302
-2.77867
-2.10169
-2.01806
-2.16541
-2.28875
-2.3089
-2.28484
-2.36861
-2.35481
-2.29785
-2.30665
-2.19473
-2.19212
-2.04418
-1.91555
-1.95475
-8.72351
-1.92211
0.0404709
-0.260031
-0.700874
-1.22243
-1.61782
-1.76262
-1.87682
-2.0024
-1.84491
-1.79832
-1.59871
-1.08107
-0.411528
0.560257
2.30096
4.1484
-6.66384
-1.87321
-0.0359074
-0.296488
-0.71777
-1.22492
-1.62712
-1.76485
-1.87425
-2.00923
-1.84525
-1.79542
-1.61109
-1.08221
-0.416052
0.560602
2.32221
4.02183
-6.596
-2.03101
-0.274754
-0.40615
-0.766456
-1.25237
-1.64855
-1.77088
-1.87549
-2.02245
-1.84497
-1.79678
-1.62882
-1.08316
-0.42896
0.546409
2.25568
3.85094
-6.67411
-2.16238
-0.545488
-0.527846
-0.835709
-1.31169
-1.68878
-1.79291
-1.89376
-2.04334
-1.85286
-1.80614
-1.65652
-1.09223
-0.467326
0.492491
2.12331
3.589
-5.39257
-2.11419
-0.774959
-0.643902
-0.912291
-1.38227
-1.73883
-1.83059
-1.93037
-2.07264
-1.8776
-1.82998
-1.69341
-1.11918
-0.535627
0.392362
1.91617
3.21455
-4.06796
-1.88714
-0.899251
-0.732909
-0.987348
-1.45279
-1.78046
-1.87466
-1.97798
-2.10317
-1.91707
-1.86878
-1.73429
-1.1697
-0.635758
0.241446
1.63864
2.75031
-2.16726
-1.39223
-0.914751
-0.807954
-1.04401
-1.50818
-1.82329
-1.92351
-2.02988
-2.13771
-1.9709
-1.91706
-1.77871
-1.23408
-0.759496
0.0428301
1.2965
2.27277
-10.2177
-2.40451
0.0877993
-0.010954
-0.445696
-0.891693
-1.36502
-1.71218
-1.94316
-2.15818
-2.18692
-2.19061
-2.34039
-2.39878
-2.35003
-2.53407
-2.47911
-3.35674
-8.40782
-2.29003
0.0361767
-0.0412069
-0.463983
-0.893951
-1.36411
-1.71466
-1.94148
-2.1629
-2.19204
-2.18629
-2.3404
-2.4048
-2.34487
-2.52301
-2.47835
-3.18807
-7.40031
-2.42817
-0.216881
-0.152295
-0.513829
-0.917437
-1.37694
-1.72274
-1.94404
-2.17116
-2.19643
-2.18005
-2.34274
-2.4103
-2.34207
-2.51428
-2.48271
-2.94497
-6.62673
-2.47104
-0.430591
-0.250341
-0.57163
-0.966636
-1.41402
-1.74468
-1.95872
-2.18272
-2.20212
-2.17758
-2.34989
-2.41474
-2.34212
-2.5015
-2.47112
-2.70946
-5.75505
-2.41962
-0.635883
-0.350066
-0.631071
-1.03278
-1.47003
-1.77995
-1.99006
-2.20262
-2.21649
-2.1865
-2.36197
-2.41833
-2.35004
-2.48455
-2.44333
-2.50563
-5.65924
-2.31907
-0.792176
-0.453359
-0.690188
-1.10194
-1.52431
-1.81673
-2.02787
-2.22675
-2.24171
-2.21316
-2.37928
-2.41988
-2.36592
-2.46908
-2.40355
-2.33758
-4.51317
-2.11632
-0.876483
-0.531337
-0.729302
-1.15127
-1.56413
-1.85437
-2.06497
-2.24649
-2.27216
-2.25451
-2.40181
-2.42192
-2.38179
-2.45124
-2.34901
-2.19716
-0.405288
-1.19612
-1.14209
-1.11262
-1.26723
-1.56726
-1.84462
-2.00929
-2.13184
-2.27652
-2.34687
-2.35365
-2.44073
-2.46829
-2.46679
-2.622
-2.77691
-2.94891
3.75579
-0.0734075
-0.926055
-1.1358
-1.30488
-1.61264
-1.89317
-2.09405
-2.21984
-2.33184
-2.39837
-2.39876
-2.44607
-2.45836
-2.44658
-2.517
-2.54698
-2.54195
6.30424
1.16633
-0.52536
-1.01132
-1.31326
-1.64301
-1.92792
-2.15318
-2.28753
-2.41447
-2.49739
-2.4858
-2.49265
-2.46901
-2.41898
-2.3815
-2.34245
-2.22405
2.68907
1.33716
-0.192202
-0.903886
-1.36017
-1.70961
-1.99523
-2.22848
-2.38644
-2.49389
-2.5768
-2.55967
-2.53892
-2.49948
-2.41267
-2.30992
-2.17142
-1.99151
4.20208
2.3968
0.443297
-0.56936
-1.28561
-1.79423
-2.11511
-2.35822
-2.50484
-2.60402
-2.67034
-2.64933
-2.61554
-2.55125
-2.41991
-2.28134
-2.08326
-1.85344
6.2682
2.9365
0.882531
-0.457817
-1.38025
-1.95
-2.28424
-2.52514
-2.66482
-2.74806
-2.7801
-2.75459
-2.69458
-2.61385
-2.49505
-2.35265
-2.11236
-1.85588
-0.63673
1.25784
0.663806
-0.525637
-1.43425
-2.11613
-2.537
-2.79485
-2.90747
-2.97352
-3.00012
-2.92529
-2.83244
-2.74025
-2.58282
-2.37673
-2.13391
-1.88569
-0.653266
1.32243
0.316547
-0.827519
-1.83512
-2.56111
-2.93977
-3.12897
-3.20032
-3.24006
-3.25381
-3.14652
-3.05344
-2.95498
-2.79908
-2.6347
-2.34153
-2.0891
2.32701
-0.28069
-1.05721
-1.89423
-2.75427
-3.32513
-3.53253
-3.59993
-3.6578
-3.64124
-3.58324
-3.46338
-3.351
-3.21371
-3.05973
-2.92141
-2.67242
-2.42157
0.724008
-0.485545
-2.32457
-3.31526
-3.94447
-4.28786
-4.35271
-4.36858
-4.32968
-4.18479
-3.9951
-3.84171
-3.73992
-3.50331
-3.29906
-3.18741
-2.9719
-2.81545
-3.72662
-3.42555
-2.56636
-1.98751
-1.84423
-1.97415
-2.15402
-2.27442
-2.36399
-2.5048
-2.63739
-2.70424
-2.84488
-3.0235
-3.19336
-3.41218
-3.72944
-4.06962
-4.67819
-2.92497
-2.4475
-2.01578
-1.87341
-1.99315
-2.1943
-2.34073
-2.44406
-2.56691
-2.66453
-2.71812
-2.84299
-2.9826
-3.11001
-3.24895
-3.4255
-3.56097
-0.0473909
-1.85109
-2.1656
-1.99904
-1.94358
-2.04914
-2.22467
-2.38075
-2.49704
-2.63351
-2.73562
-2.77574
-2.87049
-2.94773
-2.98954
-3.03682
-3.0707
-3.03861
1.66784
-0.89194
-1.63896
-1.85693
-1.96098
-2.09168
-2.2743
-2.44478
-2.57369
-2.6982
-2.75563
-2.79214
-2.85152
-2.87734
-2.93099
-2.92274
-2.87848
-2.73376
2.5417
0.435073
-0.857366
-1.55941
-1.94429
-2.19473
-2.3917
-2.54635
-2.66018
-2.78812
-2.8433
-2.8611
-2.88138
-2.81831
-2.80925
-2.73446
-2.55892
-2.44117
9.31861
2.01059
-0.224989
-1.31299
-1.91701
-2.29806
-2.5318
-2.67019
-2.76171
-2.85793
-2.92398
-2.93463
-2.92872
-2.85418
-2.82137
-2.73824
-2.50711
-2.28741
3.35412
1.87603
0.103455
-1.06995
-1.85924
-2.43135
-2.78698
-2.93001
-2.99954
-3.07848
-3.10073
-3.07354
-3.02859
-2.9074
-2.80994
-2.6803
-2.38245
-2.1994
3.15557
1.90736
0.151986
-1.22956
-2.22623
-2.71762
-3.02229
-3.21075
-3.27286
-3.29173
-3.29805
-3.22433
-3.16306
-3.07959
-2.93589
-2.84518
-2.59509
-2.31549
11.1677
2.4525
-0.444525
-1.95282
-2.91312
-3.35716
-3.60704
-3.7331
-3.74647
-3.72574
-3.64166
-3.53328
-3.43479
-3.28098
-3.11073
-2.94657
-2.71427
-2.53699
-2.12958
-2.25145
-3.02078
-3.67101
-4.14446
-4.37164
-4.34067
-4.28161
-4.27434
-4.18219
-4.02421
-3.85372
-3.7507
-3.583
-3.37179
-3.24268
-3.06117
-2.85405
-8.84829
-6.89878
-4.77728
-3.42144
-2.79871
-2.59771
-2.53803
-2.52299
-2.51077
-2.55837
-2.66819
-2.63045
-2.60089
-2.75034
-2.7217
-2.70052
-2.85178
-2.94005
-7.96876
-6.74176
-4.88091
-3.56963
-2.88648
-2.64676
-2.6081
-2.6087
-2.59177
-2.64515
-2.70191
-2.63976
-2.64119
-2.74597
-2.72168
-2.64451
-2.69672
-2.73575
-11.6966
-6.66556
-4.70334
-3.57089
-2.966
-2.71214
-2.65235
-2.6528
-2.64343
-2.7078
-2.74675
-2.70404
-2.70522
-2.73605
-2.68491
-2.57139
-2.55687
-2.44036
-11.456
-6.5019
-4.46209
-3.47918
-3.00341
-2.81199
-2.74885
-2.74003
-2.73604
-2.80286
-2.8296
-2.75802
-2.74756
-2.72481
-2.67649
-2.54141
-2.43543
-2.27151
-6.57443
-3.95519
-3.31089
-2.97593
-2.89233
-2.84784
-2.80719
-2.8088
-2.83371
-2.91132
-2.89255
-2.84761
-2.79051
-2.71531
-2.6498
-2.41033
-2.30472
-2.06676
1.23435
-1.72675
-2.19539
-2.53292
-2.81526
-2.91208
-2.9279
-2.95455
-2.97764
-3.01311
-2.99241
-2.93462
-2.86937
-2.75611
-2.70599
-2.51172
-2.3252
-2.02037
6.76308
1.42874
-0.77777
-1.90808
-2.61355
-2.95676
-3.08048
-3.13969
-3.18185
-3.16618
-3.0685
-3.04734
-3.00424
-2.85315
-2.72214
-2.52521
-2.28466
-2.06192
13.1573
4.90211
0.454534
-1.51986
-2.66803
-3.1678
-3.33845
-3.44955
-3.49374
-3.42133
-3.32689
-3.27426
-3.19537
-3.03909
-2.89648
-2.70375
-2.42979
-2.22478
0.302873
-1.1029
-2.04357
-2.82228
-3.45658
-3.71492
-3.789
-3.87645
-3.86999
-3.76925
-3.62314
-3.5198
-3.44892
-3.26349
-3.08315
-2.91926
-2.65122
-2.48547
2.04957
-0.967003
-2.92762
-3.81777
-4.31841
-4.53008
-4.54562
-4.49636
-4.38828
-4.21128
-4.03788
-3.87801
-3.77102
-3.58581
-3.38886
-3.24306
-3.00007
-2.81233
-8.2697
-7.2896
-5.52706
-4.17103
-3.44464
-3.15721
-2.98565
-2.86917
-2.81908
-2.79106
-2.79341
-2.77674
-2.76241
-2.84911
-2.83673
-2.90339
-2.92102
-2.90295
-8.83747
-7.17545
-5.65082
-4.37195
-3.57357
-3.22722
-3.05934
-2.92841
-2.84742
-2.83737
-2.82804
-2.80354
-2.80188
-2.85629
-2.83113
-2.80538
-2.82065
-2.69559
-8.66476
-7.11858
-5.63898
-4.45354
-3.66279
-3.29566
-3.10714
-2.99649
-2.92183
-2.93613
-2.8913
-2.83141
-2.81912
-2.85278
-2.78706
-2.71583
-2.74948
-2.38389
-12.318
-7.38067
-5.5598
-4.4634
-3.75744
-3.46482
-3.22673
-3.06851
-2.96699
-2.97769
-2.94733
-2.876
-2.86704
-2.873
-2.78785
-2.63401
-2.59013
-2.38207
-9.58254
-6.08898
-5.03568
-4.24936
-3.71245
-3.45743
-3.24674
-3.12802
-3.10308
-3.09515
-3.02878
-2.95717
-2.92342
-2.87381
-2.78208
-2.53988
-2.49472
-2.29188
-3.50414
-4.0623
-4.12106
-3.9252
-3.7263
-3.54852
-3.37581
-3.24969
-3.21819
-3.16803
-3.06311
-3.01834
-2.97818
-2.89635
-2.81443
-2.61253
-2.48326
-2.1999
-6.18272
-3.52363
-3.20736
-3.42589
-3.58006
-3.55937
-3.49575
-3.4856
-3.48105
-3.38667
-3.23057
-3.16838
-3.09057
-2.9857
-2.82557
-2.59199
-2.44102
-2.16989
4.0703
-0.0151762
-2.22457
-3.17361
-3.66224
-3.75209
-3.70999
-3.7179
-3.70311
-3.55281
-3.38554
-3.32659
-3.24936
-3.12789
-2.99332
-2.77516
-2.61777
-2.35893
6.65103
-0.284962
-2.64164
-3.61234
-4.11553
-4.19981
-4.18066
-4.19878
-4.12086
-3.93217
-3.73055
-3.62155
-3.52419
-3.3188
-3.1357
-2.94301
-2.67098
-2.5421
-10.6997
-6.40154
-5.3278
-5.15558
-5.09037
-4.93637
-4.77736
-4.68154
-4.50168
-4.30714
-4.1086
-3.93209
-3.80336
-3.62947
-3.47149
-3.30875
-3.06469
-2.90494
-11.0625
-8.62697
-6.41774
-4.76966
-3.80091
-3.3367
-3.08846
-2.90669
-2.70716
-2.64113
-2.62407
-2.61035
-2.55813
-2.49416
-2.58415
-2.51959
-2.4445
-2.60993
-9.17675
-8.23382
-6.56577
-5.02452
-3.98615
-3.42983
-3.16718
-2.99635
-2.79384