/*--------------------------------*- C++ -*----------------------------------*\
| =========                 |                                                 |
| \\      /  F ield         | OpenFOAM: The Open Source CFD Toolbox           |
|  \\    /   O peration     | Version:  3.0.1                                 |
|   \\  /    A nd           | Web:      www.OpenFOAM.org                      |
|    \\/     M anipulation  |                                                 |
\*---------------------------------------------------------------------------*/
FoamFile
{
    version     2.0;
    format      ascii;
    class       volScalarField;
    location    "0.1";
    object      Ux;
}
// * * * * * * * * * * * * * * * * * * * * * * * * * * * * * * * * * * * * * //

dimensions      [0 1 -1 0 0 0 0];

internalField   nonuniform List<scalar> 
244500
(
6.54446
4.14219
2.84168
2.21279
1.92194
1.76651
1.66355
1.58467
1.51648
1.46493
1.41922
1.38198
1.34951
1.32483
1.29776
1.27565
1.27707
1.13613
9.2455
8.37549
7.15099
6.11598
5.41431
4.9592
4.6435
4.40355
4.20982
4.06156
3.92462
3.819
3.72329
3.64227
3.57217
3.50271
3.49028
3.33301
9.77412
10.1767
9.7399
8.94001
8.18341
7.5882
7.13971
6.78283
6.49584
6.27425
6.06629
5.90431
5.76054
5.62472
5.52672
5.4077
5.38638
5.20924
9.59887
10.4375
10.7527
10.5396
10.0841
9.59414
9.16788
8.78655
8.46516
8.20685
7.96189
7.76013
7.59315
7.40838
7.29841
7.12991
7.10963
6.90424
9.4499
10.2273
10.7896
10.9533
10.8517
10.64
10.4328
10.1814
9.93863
9.71374
9.49836
9.29
9.14095
8.9302
8.8293
8.6246
8.60988
8.38949
9.57773
10.1131
10.5805
10.796
10.886
10.8814
10.907
10.8339
10.7453
10.613
10.5067
10.345
10.2623
10.0748
10.0092
9.80594
9.79925
9.58666
9.5371
10.0036
10.4183
10.5794
10.7162
10.7253
10.8373
10.8626
10.9171
10.8723
10.8975
10.8186
10.8168
10.7101
10.699
10.5524
10.5639
10.4025
6.57353
4.13091
2.83441
2.20764
1.91896
1.76515
1.6631
1.58596
1.51725
1.46746
1.42346
1.39016
1.35673
1.33489
1.30563
1.28858
1.28205
1.15002
9.29512
8.4047
7.16175
6.11231
5.41223
4.95892
4.64323
4.40572
4.20771
4.06858
3.93647
3.84015
3.74212
3.66649
3.58869
3.52618
3.49565
3.36284
9.78459
10.1908
9.74503
8.93167
8.17913
7.58781
7.13831
6.78603
6.48907
6.28199
6.08109
5.93365
5.7895
5.66034
5.55446
5.43876
5.39089
5.24304
9.44779
10.3665
10.7124
10.5004
10.0612
9.5868
9.16213
8.79152
8.45415
8.21254
7.97529
7.79152
7.62971
7.45044
7.34038
7.17217
7.11827
6.93476
9.53424
10.2148
10.7278
10.8911
10.8303
10.6508
10.4403
10.2003
9.93237
9.71911
9.50748
9.3163
9.18067
8.9695
8.88184
8.68179
8.63125
8.41811
9.49816
10.0333
10.5338
10.7799
10.8909
10.8963
10.8909
10.8233
10.7087
10.5863
10.485
10.3443
10.291
10.0972
10.0586
9.87378
9.8375
9.62307
9.67576
9.98427
10.4203
10.6361
10.7871
10.8103
10.8678
10.8744
10.8908
10.8394
10.8587
10.7985
10.8366
10.711
10.7294
10.6164
10.6129
10.4473
6.58815
4.15785
2.83862
2.2048
1.91643
1.76708
1.66679
1.58805
1.52047
1.46636
1.42298
1.38628
1.35707
1.33419
1.31499
1.30002
1.3168
1.18431
9.3147
8.40405
7.14737
6.09766
5.40487
4.96736
4.65596
4.41454
4.21656
4.05854
3.93154
3.82315
3.73775
3.66009
3.60236
3.54055
3.55024
3.41527
9.72295
10.1332
9.71049
8.90887
8.16668
7.60131
7.16066
6.80397
6.50939
6.26677
6.0741
5.90369
5.77731
5.64594
5.56512
5.44747
5.44889
5.28971
9.55138
10.4504
10.7702
10.5206
10.0635
9.61144
9.19686
8.81863
8.49257
8.19942
7.97167
7.75278
7.6082
7.42769
7.34396
7.17167
7.17109
6.97083
9.58176
10.3295
10.8159
10.9297
10.8435
10.6814
10.4811
10.2252
9.98474
9.71478
9.51445
9.27871
9.15282
8.94087
8.87723
8.67394
8.67031
8.44986
9.55624
10.0966
10.6103
10.8633
10.9516
10.9371
10.9279
10.8315
10.7658
10.604
10.517
10.3272
10.2713
10.0724
10.0494
9.86811
9.85582
9.6548
9.58489
9.98099
10.4238
10.6145
10.7385
10.749
10.8532
10.8552
10.938
10.8863
10.9228
10.8154
10.8479
10.7114
10.7302
10.6358
10.6162
10.4768
6.64418
4.1613
2.84783
2.21144
1.91879
1.76415
1.66423
1.58693
1.52226
1.46897
1.42717
1.39277
1.3627
1.33945
1.32099
1.30039
1.31544
1.16658
9.31481
8.40857
7.1703
6.11018
5.40208
4.94815
4.6418
4.40664
4.2188
4.0654
3.94347
3.83802
3.74859
3.67441
3.6132
3.54459
3.5576
3.39366
9.79414
10.2272
9.78724
8.94538
8.16754
7.56679
7.13054
6.78367
6.50681
6.27521
6.0934
5.92718
5.79225
5.66994
5.57782
5.45668
5.46747
5.27179
9.51508
10.4404
10.7689
10.514
10.0401
9.55044
9.14283
8.77836
8.47931
8.20391
7.99732
7.78732
7.62774
7.46482
7.35758
7.18383
7.20388
6.9541
9.51068
10.2635
10.7802
10.9115
10.8194
10.6136
10.4131
10.1686
9.96146
9.71009
9.54208
9.32585
9.1774
8.99586
8.89417
8.683
8.72004
8.43021
9.62672
10.1372
10.6377
10.8747
10.9415
10.8819
10.8653
10.7731
10.7424
10.5868
10.5365
10.3815
10.2966
10.1428
10.0738
9.86701
9.91985
9.63357
9.58534
10.0002
10.4794
10.6938
10.8304
10.8112
10.8585
10.7942
10.8767
10.7988
10.8733
10.8207
10.8336
10.76
10.7463
10.6105
10.676
10.4585
6.51562
4.16063
2.85604
2.22044
1.92416
1.76854
1.66462
1.58505
1.51818
1.46578
1.42321
1.38976
1.3618
1.33983
1.32541
1.31259
1.33212
1.18784
9.3319
8.45819
7.19717
6.13728
5.42128
4.9668
4.64543
4.40125
4.20713
4.05343
3.92861
3.82537
3.73913
3.66577
3.61781
3.55826
3.58483
3.44011
9.82091
10.2691
9.80442
8.97741
8.1985
7.60466
7.14566
6.77999
6.48989
6.25435
6.06661
5.90332
5.77241
5.6471
5.57684
5.46216
5.48869
5.32845
9.61607
10.4969
10.7984
10.5636
10.09
9.61445
9.17992
8.78588
8.46073
8.17611
7.95776
7.75043
7.59778
7.42462
7.34786
7.17875
7.20754
7.01711
9.56705
10.3121
10.8176
10.9722
10.8812
10.6996
10.4752
10.1933
9.94416
9.67888
9.49188
9.27439
9.13929
8.93806
8.87426
8.67027
8.70083
8.49629
9.52188
10.0303
10.4993
10.7782
10.9053
10.9266
10.924
10.813
10.7377
10.5722
10.496
10.3255
10.2581
10.0755
10.0446
9.85274
9.88278
9.69736
9.7269
10.0554
10.4264
10.6658
10.8255
10.8376
10.9022
10.8575
10.914
10.8395
10.8815
10.7907
10.8135
10.7061
10.7168
10.6026
10.6367
10.517
6.6173
4.1835
2.86025
2.22381
1.92898
1.77458
1.6715
1.59216
1.5258
1.47402
1.43011
1.39747
1.36868
1.34956
1.33345
1.32807
1.35341
1.20612
9.3327
8.43648
7.18471
6.1369
5.42507
4.97672
4.65974
4.4167
4.22741
4.07295
3.94676
3.84691
3.75561
3.689
3.63214
3.58732
3.61077
3.484
9.72739
10.1991
9.76997
8.96726
8.19457
7.61235
7.16202
6.79893
6.5207
6.28287
6.09366
5.93693
5.79643
5.68278
5.595
5.50072
5.50873
5.3774
9.60516
10.4663
10.7605
10.5383
10.0703
9.61233
9.19098
8.80092
8.49823
8.21172
7.9904
7.79316
7.62615
7.47091
7.36932
7.22695
7.22351
7.05605
9.52565
10.2611
10.7428
10.9164
10.8337
10.6719
10.4648
10.1909
9.97831
9.71755
9.52571
9.32051
9.16604
8.98796
8.89638
8.72507
8.72161
8.51901
9.75321
10.1927
10.554
10.8058
10.8936
10.894
10.887
10.7756
10.7417
10.5926
10.514
10.3588
10.2713
10.1138
10.0605
9.89966
9.91274
9.71251
9.54924
10.0516
10.463
10.6958
10.7935
10.7793
10.8464
10.8157
10.9132
10.866
10.9027
10.8194
10.8172
10.7237
10.7268
10.6188
10.6645
10.5385
6.54009
4.12908
2.83891
2.21557
1.92459
1.77175
1.66732
1.58991
1.52394
1.47375
1.42914
1.39707
1.36585
1.34714
1.32939
1.32523
1.35629
1.21116
9.21445
8.32894
7.1386
6.11397
5.41047
4.96736
4.64865
4.41675
4.22563
4.0741
3.94483
3.8422
3.7466
3.68368
3.62223
3.58453
3.61204
3.49316
9.70623
10.1782
9.7648
8.95059
8.17265
7.59601
7.14251
6.80094
6.51944
6.28614
6.09372
5.9295
5.78197
5.67568
5.57932
5.50073
5.50692
5.3924
9.4327
10.4158
10.7646
10.5261
10.0406
9.589
9.16309
8.80482
8.49804
8.21639
7.99524
7.78683
7.60811
7.46362
7.34685
7.22863
7.21838
7.07635
9.62708
10.3347
10.8291
10.951
10.8214
10.6621
10.4461
10.2066
9.9855
9.72341
9.53484
9.31877
9.14868
8.98364
8.86886
8.72413
8.711
8.53935
9.51987
10.0418
10.4935
10.7478
10.8334
10.8952
10.909
10.8332
10.7796
10.6098
10.5287
10.3646
10.2615
10.1167
10.0353
9.89678
9.89199
9.72114
9.64119
10.0169
10.393
10.6396
10.7753
10.844
10.9203
10.8852
10.9444
10.8658
10.9011
10.8187
10.8175
10.7347
10.7112
10.6245
10.6337
10.5208
6.60895
4.15183
2.83971
2.20993
1.92225
1.76929
1.6687
1.5891
1.52413
1.4714
1.42803
1.39445
1.36773
1.34762
1.33598
1.32487
1.36327
1.19538
9.21668
8.38143
7.15413
6.1079
5.41241
4.9636
4.65309
4.41116
4.22436
4.06684
3.93865
3.83581
3.74821
3.68112
3.63784
3.57999
3.63743
3.46854
9.67677
10.1603
9.73127
8.91881
8.17475
7.59344
7.15292
6.79265
6.51767
6.27756
6.08338
5.92175
5.78091
5.66714
5.59777
5.48953
5.54224
5.37228
9.5413
10.423
10.713
10.4867
10.0636
9.60407
9.1897
8.79849
8.49735
8.21135
7.98322
7.78319
7.60596
7.45017
7.36327
7.20863
7.25244
7.06351
9.55344
10.1704
10.6844
10.8916
10.8622
10.6842
10.4768
10.1957
9.98165
9.72517
9.52459
9.32688
9.1519
8.97235
8.88276
8.69574
8.73539
8.53193
9.53324
10.0626
10.5377
10.7787
10.8809
10.8709
10.8937
10.7912
10.7568
10.6144
10.5222
10.3902
10.2785
10.1187
10.0503
9.86585
9.90424
9.71533
9.62141
9.98606
10.3838
10.5861
10.7313
10.7498
10.8746
10.8543
10.9372
10.8891
10.9084
10.8588
10.8464
10.7548
10.7262
10.6008
10.6402
10.5146
6.62447
4.15372
2.83923
2.205
1.91556
1.76399
1.66447
1.58445
1.51836
1.4642
1.42366
1.38512
1.35857
1.32959
1.30639
1.27128
1.27338
1.08762
9.26461
8.38142
7.15061
6.09789
5.39857
4.95409
4.64566
4.40015
4.20928
4.05054
3.93026
3.8189
3.74238
3.65216
3.5973
3.50326
3.50752
3.27954
9.70821
10.1617
9.73651
8.91459
8.15739
7.57905
7.14352
6.77893
6.49678
6.25368
6.07042
5.89597
5.78268
5.63547
5.56185
5.41617
5.41639
5.17173
9.62493
10.5053
10.794
10.5193
10.0481
9.58082
9.17599
8.78591
8.47547
8.18369
7.96731
7.74352
7.61274
7.41764
7.33545
7.14937
7.14536
6.87979
9.42898
10.2247
10.762
10.8948
10.8156
10.6446
10.4626
10.1941
9.96877
9.70152
9.51426
9.27267
9.15465
8.93743
8.86003
8.65494
8.65186
8.37558
9.53564
10.0707
10.5824
10.8092
10.894
10.8719
10.8969
10.8051
10.7606
10.6023
10.5279
10.3308
10.2635
10.0767
10.0258
9.84262
9.84344
9.59413
9.64276
10.0121
10.3935
10.5742
10.741
10.7535
10.8696
10.8709
10.9575
10.8795
10.905
10.7945
10.7865
10.6889
10.692
10.5913
10.5912
10.4286
6.53179
4.13815
2.83421
2.20411
1.91263
1.76249
1.65976
1.58401
1.51846
1.46551
1.4267
1.38853
1.36573
1.34048
1.33024
1.3057
1.34292
1.16114
9.32998
8.40274
7.15482
6.10265
5.39421
4.95129
4.63218
4.40132
4.20604
4.04977
3.93432
3.81803
3.75395
3.66539
3.63292
3.55083
3.60657
3.39654
9.7623
10.1799
9.7538
8.9321
8.15688
7.57784
7.12135
6.7796
6.48859
6.24714
6.07342
5.88726
5.79477
5.64608
5.59745
5.46415
5.51302
5.30001
9.56471
10.4506
10.7823
10.5313
10.0455
9.58044
9.1451
8.78279
8.46117
8.16713
7.96678
7.72497
7.62212
7.42505
7.36582
7.19391
7.22888
7.00939
9.45471
10.2297
10.8048
10.9642
10.8587
10.6781
10.4452
10.1939
9.95052
9.67222
9.50553
9.24321
9.15932
8.94184
8.88519
8.6932
8.71958
8.5019
9.54804
10.0088
10.5039
10.764
10.8723
10.8908
10.8842
10.8025
10.7355
10.5577
10.508
10.2933
10.2681
10.0822
10.053
9.8724
9.89817
9.71777
9.676
10.0322
10.4338
10.607
10.7339
10.7382
10.8109
10.8089
10.8992
10.8212
10.8906
10.7747
10.8152
10.7182
10.7444
10.6161
10.6413
10.5642
6.54452
4.14185
2.84293
2.2132
1.92272
1.76892
1.66547
1.58741
1.52205
1.47039
1.42808
1.39141
1.36651
1.34147
1.32888
1.30762
1.33948
1.19013
9.24553
8.37454
7.15362
6.11549
5.41631
4.96336
4.64534
4.40929
4.21965
4.06908
3.94197
3.833
3.75435
3.66637
3.62933
3.55014
3.59632
3.44062
9.77405
10.175
9.74371
8.9385
8.18582
7.59334
7.14035
6.78949
6.50768
6.28044
6.08786
5.91778
5.79764
5.64803
5.59318
5.45805
5.49664
5.3416
9.59876
10.4343
10.7575
10.5376
10.086
9.5998
9.16769
8.79184
8.47843
8.21038
7.98489
7.77159
7.63139
7.42955
7.36373
7.18086
7.20731
7.04092
9.44945
10.2221
10.796
10.9521
10.8527
10.6457
10.4334
10.1834
9.95204
9.71509
9.51966
9.29952
9.17611
8.95052
8.88737
8.6736
8.68842
8.52093
9.5793
10.105
10.5872
10.7971
10.8848
10.8853
10.9114
10.8323
10.7561
10.614
10.5237
10.3528
10.2896
10.0953
10.0582
9.84998
9.85146
9.69955
9.53829
9.99064
10.4269
10.589
10.7142
10.7239
10.8452
10.8595
10.9217
10.8733
10.9115
10.8275
10.8302
10.7291
10.7429
10.5915
10.5852
10.4632
6.57348
4.1308
2.83575
2.20793
1.91977
1.76782
1.66482
1.58889
1.52291
1.47261
1.43242
1.40061
1.37254
1.35231
1.33582
1.31902
1.34342
1.20606
9.2943
8.40499
7.16442
6.1116
5.41485
4.96287
4.64441
4.41305
4.21592
4.07618
3.95545
3.85361
3.77263
3.69398
3.64102
3.5749
3.59969
3.46505
9.78219
10.1913
9.74905
8.92962
8.18319
7.59228
7.13727
6.79628
6.4973
6.288
6.10709
5.94316
5.82742
5.68937
5.61227
5.49202
5.50377
5.35638
9.44333
10.3657
10.7186
10.4974
10.0661
9.59245
9.15803
8.80308
8.46245
8.21339
8.00743
7.79437
7.67
7.48015
7.39344
7.22535
7.22684
7.04308
9.52823
10.2113
10.738
10.8886
10.8349
10.6591
10.4341
10.2103
9.94228
9.71195
9.54343
9.31331
9.21735
9.00263
8.92411
8.7304
8.73116
8.51883
9.49273
10.0241
10.5475
10.7812
10.8933
10.9079
10.8852
10.8262
10.7221
10.5715
10.5184
10.3392
10.3177
10.1348
10.0907
9.9111
9.92055
9.72286
9.67727
9.95955
10.4367
10.6489
10.7839
10.8239
10.871
10.866
10.9049
10.8229
10.8804
10.7961
10.8498
10.7494
10.7597
10.6412
10.6582
10.5458
6.58809
4.15765
2.8403
2.20471
1.91746
1.76904
1.66913
1.59037
1.52526
1.47204
1.43041
1.39628
1.37134
1.35125
1.34118
1.3292
1.37463
1.22242
9.31386
8.40391
7.15062
6.09609
5.4083
4.96971
4.65914
4.41931
4.22466
4.0672
3.94534
3.83975
3.76176
3.68873
3.64723
3.58629
3.64842
3.49705
9.72068
10.1328
9.71521
8.90558
8.17197
7.60331
7.16338
6.80963
6.51853
6.27514
6.09041
5.92208
5.80297
5.67875
5.61419
5.49626
5.55461
5.38421
9.54729
10.4486
10.7771
10.5161
10.0699
9.61313
9.19923
8.82343
8.50227
8.20602
7.98781
7.77201
7.63048
7.46244
7.39065
7.21684
7.2742
7.05918
9.57696
10.3246
10.826
10.9251
10.85
10.6831
10.4847
10.2274
9.99418
9.71976
9.52702
9.29966
9.16867
8.97543
8.92101
8.70826
8.7693
8.5247
9.5519
10.0867
10.6245
10.8626
10.9572
10.9382
10.9352
10.8296
10.7726
10.6089
10.5226
10.3493
10.2813
10.1018
10.0936
9.88612
9.94478
9.71741
9.58484
9.96085
10.439
10.6232
10.7439
10.7457
10.8669
10.8515
10.9393
10.8927
10.921
10.835
10.8562
10.73
10.7779
10.6402
10.6803
10.5268
6.64424
4.16062
2.8491
2.21171
1.91936
1.76637
1.66514
1.58964
1.52529
1.47385
1.43216
1.40054
1.37275
1.35181
1.33735
1.3211
1.34572
1.18488
9.3149
8.4069
7.17339
6.10935
5.40384
4.95239
4.64144
4.4134
4.2226
4.07389
3.95215
3.85159
3.76585
3.6951
3.64375
3.57965
3.6107
3.44457
9.79427
10.2242
9.79178
8.94347
8.1695
7.57276
7.12799
6.79305
6.50992
6.28473
6.10283
5.94259
5.81153
5.69201
5.61391
5.49553
5.52443
5.33947
9.51548
10.4348
10.7745
10.5118
10.0411
9.55806
9.13823
8.78887
8.48148
8.21359
8.0054
7.8029
7.64694
7.48461
7.39509
7.22193
7.25499
7.0282
9.5116
10.2548
10.7863
10.9108
10.8184
10.6226
10.408
10.1787
9.9622
9.72037
9.54706
9.34031
9.19597
9.01094
8.93157
8.71731
8.7604
8.50476
9.62937
10.1251
10.6424
10.8785
10.9383
10.8909
10.8627
10.7817
10.7405
10.5988
10.5373
10.3935
10.3141
10.1511
10.1117
9.89469
9.94495
9.70573
9.59187
9.98528
10.4781
10.7045
10.8284
10.8157
10.8604
10.8014
10.8721
10.8148
10.87
10.8313
10.8487
10.7587
10.7879
10.6307
10.6806
10.5222
6.51553
4.16027
2.85702
2.22055
1.92475
1.76971
1.66561
1.58697
1.52021
1.46905
1.42682
1.39465
1.36711
1.34747
1.33208
1.32153
1.33947
1.19247
9.33164
8.45737
7.19906
6.13684
5.4229
4.96865
4.64669
4.40516
4.20987
4.0597
3.93468
3.83415
3.749
3.68026
3.63
3.57811
3.60102
3.45883
9.82035
10.2676
9.80685
8.97648
8.20053
7.60685
7.14648
6.78505
6.492
6.26179
6.07329
5.91308
5.78378
5.66464
5.59053
5.48738
5.50917
5.35538
9.61511
10.4946
10.8011
10.5626
10.0917
9.617
9.17993
8.79174
8.46177
8.18352
7.96447
7.75948
7.60894
7.44314
7.36121
7.20512
7.22885
7.04922
9.56606
10.3085
10.8202
10.9722
10.882
10.7028
10.4744
10.1994
9.94456
9.68492
9.49866
9.28206
9.1487
8.95591
8.88718
8.69495
8.7181
8.53283
9.52112
10.0251
10.5009
10.7812
10.9047
10.9305
10.9229
10.8182
10.739
10.5755
10.5023
10.3327
10.2646
10.0897
10.0584
9.87509
9.89031
9.73195
9.72562
10.0523
10.4256
10.6705
10.8229
10.8427
10.9024
10.8603
10.9178
10.8399
10.8845
10.8008
10.8177
10.7111
10.7338
10.6234
10.6335
10.5351
6.61751
4.18307
2.86077
2.2241
1.92912
1.77517
1.67193
1.59289
1.52661
1.47541
1.43122
1.40017
1.37124
1.35334
1.33903
1.33314
1.3611
1.21297
9.33348
8.43503
7.18604
6.13644
5.42587
4.97767
4.65994
4.41874
4.22766
4.07604
3.94794
3.85231
3.75926
3.69618
3.64202
3.594
3.62875
3.49776
9.729
10.1967
9.77203
8.96571
8.19601
7.61327
7.16157
6.80244
6.51948
6.28747
6.09385
5.94389
5.79946
5.69124
5.60719
5.50435
5.53368
5.39234
9.60773
10.4627
10.7633
10.5355
10.0722
9.61316
9.18942
8.80632
8.49493
8.2179
7.989
7.80127
7.62772
7.4791
7.38471
7.22327
7.25358
7.07323
9.52901
10.2556
10.7465
10.9124
10.836
10.6728
10.4618
10.1985
9.97287
9.72515
9.52261
9.32931
9.16624
8.99363
8.91761
8.71289
8.75013
8.54405
9.7574
10.1858
10.5585
10.8008
10.8956
10.8955
10.8822
10.7853
10.735
10.6011
10.5097
10.3676
10.2708
10.1147
10.0872
9.88633
9.92992
9.73904
9.55603
10.04
10.4686
10.6918
10.794
10.7823
10.8413
10.8262
10.9078
10.8736
10.8982
10.8279
10.8161
10.72
10.7515
10.6189
10.6709
10.5405
6.54017
4.12916
2.83849
2.21565
1.92449
1.77131
1.66781
1.58937
1.52374
1.47376
1.4288
1.39624
1.36523
1.34653
1.32831
1.32495
1.35524
1.21804
9.21481
8.32905
7.13777
6.11429
5.41009
4.96628
4.65051
4.41462
4.22605
4.07494
3.94283
3.84224
3.74499
3.68175
3.62053
3.58241
3.60924
3.49772
9.70698
10.1784
9.7636
8.9511
8.17238
7.59365
7.14608
6.79741
6.51991
6.28862
6.08964
5.93115
5.77979
5.67269
5.57815
5.49604
5.50496
5.39215
9.43353
10.4169
10.7632
10.5265
10.0413
9.58435
9.16861
8.80046
8.4972
8.22148
7.98882
7.7902
7.6059
7.4596
7.34762
7.22041
7.21917
7.07244
9.62755
10.3373
10.8275
10.9504
10.8247
10.6543
10.4529
10.2029
9.98164
9.73128
9.52652
9.32344
9.147
8.97868
8.87286
8.71209
8.71509
8.53416
9.51949
10.0458
10.4921
10.7439
10.8419
10.8832
10.9151
10.8327
10.7717
10.619
10.5199
10.3698
10.2608
10.1116
10.0427
9.88218
9.89856
9.7199
9.63779
10.0224
10.3954
10.6281
10.7907
10.8313
10.9209
10.8892
10.9339
10.8722
10.8944
10.8237
10.8164
10.7327
10.7199
10.611
10.6395
10.5287
6.60935
4.15111
2.83981
2.21005
1.92118
1.76953
1.6672
1.58879
1.52152
1.46996
1.42512
1.39126
1.3633
1.34425
1.3281
1.32096
1.35116
1.20543
9.21827
8.37892
7.15539
6.10737
5.41029
4.96602
4.64827
4.41251
4.21869
4.06499
3.93304
3.82982
3.74076
3.6744
3.62168
3.57468
3.60937
3.47192
9.68007
10.1558
9.73346
8.91798
8.17115
7.59877
7.14525
6.79622
6.51037
6.27593
6.07711
5.91406
5.77303
5.65887
5.57824
5.4839
5.50841
5.36799
9.54654
10.4169
10.715
10.4863
10.0577
9.61204
9.18001
8.80424
8.48932
8.21025
7.97785
7.77401
7.59937
7.44069
7.34367
7.20275
7.21789
7.05416
9.55965
10.163
10.6838
10.8923
10.8539
10.6933
10.4667
10.2034
9.97361
9.72476
9.52147
9.31651
9.14765
8.96183
8.86497
8.69033
8.70263
8.5184
9.53859
10.0573
10.5332
10.7815
10.8719
10.8766
10.8849
10.8005
10.7493
10.6143
10.5226
10.3798
10.2764
10.1083
10.0363
9.85992
9.87564
9.70166
9.62446
9.9828
10.3724
10.5878
10.7313
10.7511
10.8685
10.8633
10.9307
10.8871
10.9124
10.852
10.8434
10.7453
10.7212
10.5922
10.6132
10.5096
6.62435
4.15331
2.83872
2.20509
1.914
1.76345
1.66331
1.58204
1.5148
1.46188
1.4181
1.37896
1.34962
1.32027
1.28739
1.25504
1.23669
1.07505
9.26453
8.3807
7.14967
6.09851
5.39517
4.95496
4.64227
4.39601
4.20486
4.04593
3.92011
3.8109
3.72531
3.63827
3.56313
3.48074
3.44233
3.24169
9.70819
10.1609
9.73501
8.91621
8.15202
7.58239
7.13877
6.77385
6.49341
6.24808
6.05824
5.88962
5.76178
5.62211
5.52279
5.39364
5.34586
5.1229
9.6246
10.5049
10.7912
10.5227
10.04
9.58694
9.17107
8.78028
8.47342
8.17836
7.95388
7.73978
7.59107
7.4054
7.2974
7.12822
7.08029
6.83129
9.42832
10.2244
10.756
10.9015
10.804
10.6529
10.4593
10.189
9.96698
9.6979
9.50089
9.26968
9.13514
8.92629
8.82504
8.63545
8.59625
8.33842
9.53228
10.075
10.5722
10.8206
10.8774
10.878
10.8971
10.8041
10.7559
10.5999
10.5192
10.3246
10.2459
10.0698
9.99442
9.82169
9.79871
9.57565
9.63674
10.0172
10.3746
10.5939
10.728
10.754
10.8709
10.8805
10.9462
10.8717
10.9098
10.7852
10.7619
10.6901
10.671
10.5593
10.5554
10.4314
6.53132
4.13868
2.83287
2.20383
1.91236
1.76019
1.65879
1.5803
1.51439
1.46109
1.41947
1.38028
1.35241
1.32846
1.30854
1.28452
1.30231
1.1512
9.32811
8.40553
7.15066
6.10438
5.39332
4.94601
4.63344
4.39191
4.20117
4.04277
3.91941
3.80741
3.728
3.64792
3.59057
3.51841
3.53542
3.35084
9.75814
10.1857
9.74682
8.9358
8.1565
7.56989
7.12639
6.76617
6.4843
6.24089
6.05353
5.87946
5.76223
5.62991
5.54685
5.42794
5.4405
5.22699
9.55752
10.4608
10.7727
10.5361
10.0468
9.57035
9.15407
8.76756
8.45674
8.16382
7.94312
7.72155
7.58678
7.41199
7.31529
7.15379
7.17223
6.91832
9.44343
10.2452
10.7936
10.9693
10.8622
10.6676
10.4566
10.1798
9.94489
9.67261
9.4801
9.24324
9.12383
8.93182
8.84056
8.64841
8.68447
8.40582
9.53382
10.0309
10.4907
10.7674
10.8767
10.8827
10.896
10.7928
10.7277
10.5606
10.4841
10.2944
10.2347
10.0733
10.0171
9.82814
9.88155
9.61933
9.6514
10.0652
10.4263
10.6089
10.7355
10.7351
10.8192
10.8068
10.8873
10.8236
10.8725
10.7722
10.7875
10.7086
10.7105
10.5861
10.645
10.4526
9.65682
9.85607
10.2181
10.3943
10.6115
10.6499
10.7482
10.7852
10.8529
10.7976
10.8338
10.8344
10.8486
10.8556
10.8799
10.8454
10.8803
10.8496
9.65208
9.78937
9.99679
10.1436
10.2928
10.3805
10.411
10.4468
10.5495
10.5843
10.5899
10.6555
10.6619
10.7151
10.7214
10.7571
10.768
10.8094
9.61784
9.73918
9.91767
10.0886
10.0902
10.2218
10.2721
10.2951
10.4038
10.4416
10.4554
10.4832
10.4281
10.472
10.4865
10.5138
10.5313
10.5628
9.63103
9.67198
9.73594
9.88123
9.94064
10.0808
10.1155
10.1473
10.2076
10.1966
10.2739
10.3246
10.2959
10.3566
10.3825
10.4
10.3919
10.3888
9.58277
9.60682
9.69284
9.8056
9.86468
9.97887
10.0198
10.0823
10.0973
10.0856
10.1841
10.2067
10.2216
10.3168
10.3016
10.3106
10.3
10.2793
9.67341
9.61341
9.63238
9.70876
9.72821
9.80936
9.85273
9.91452
9.93317
9.924
10.007
10.0372
10.0818
10.125
10.0987
10.1779
10.1641
10.1545
9.68837
9.67905
9.67438
9.7691
9.84665
9.91939
9.92755
9.92828
9.97021
9.96702
9.94275
9.89771
9.93437
9.96544
9.97084
10.042
10.0385
10.096
9.59377
9.65749
9.6868
9.70072
9.69465
9.70833
9.73389
9.77598
9.88349
9.95707
9.95464
9.91817
9.95107
9.96737
10.0102
10.0665
10.0397
10.0627
9.52543
9.51258
9.5359
9.57071
9.61636
9.65077
9.69416
9.7148
9.74819
9.80481
9.87374
9.90598
9.96128
9.99519
10.0239
10.0346
10.0186
10.0443
9.58019
9.53299
9.58922
9.67419
9.672
9.68157
9.69208
9.66835
9.69142
9.73219
9.80484
9.83465
9.87928
9.9082
9.8824
9.87165
9.90546
9.95142
9.51823
9.85419
10.287
10.469
10.599
10.608
10.6503
10.685
10.8059
10.7969
10.8374
10.8395
10.8822
10.8438
10.8833
10.8868
10.9362
10.8841
9.61563
9.7607
10.046
10.2401
10.3606
10.4055
10.4381
10.4683
10.5717
10.6111
10.6078
10.6708
10.6778
10.7206
10.7345
10.7565
10.8027
10.8141
9.57033
9.65078
9.84024
10.0639
10.2208
10.2896
10.3003
10.2995
10.3452
10.3725
10.3694
10.4513
10.4312
10.4992
10.5411
10.558
10.5893
10.644
9.73026
9.75358
9.81016
9.90206
10.0082
10.0878
10.1313
10.1543
10.2093
10.189
10.2012
10.3159
10.3174
10.4067
10.4434
10.4145
10.4459
10.5035
9.6557
9.76979
9.73824
9.79807
9.8569
9.90857
10.0078
10.0279
10.1157
10.1585
10.1596
10.2251
10.188
10.1935
10.2248
10.2564
10.2718
10.2594
9.53386
9.60014
9.5968
9.72852
9.78835
9.86178
9.93466
9.91641
10.0027
10.0647
10.0861
10.0901
10.0736
10.1312
10.1248
10.1484
10.1774
10.1543
9.45426
9.51568
9.54635
9.68476
9.72082
9.80931
9.8537
9.82155
9.87611
9.92018
9.9467
9.98155
10.0286
10.0741
10.0736
10.0689
10.0239
10.0343
9.47779
9.53711
9.60686
9.68982
9.69361
9.74111
9.77495
9.80368
9.85668
9.92576
9.99108
10.0273
10.0356
9.99238
10.0043
10.0335
10.039
10.0945
9.62771
9.61414
9.63222
9.6666
9.72128
9.78439
9.80914
9.78969
9.78039
9.85425
9.94031
9.9532
9.94981
9.94209
9.95342
9.93234
9.95753
10.0507
9.62395
9.58599
9.59876
9.63204
9.6127
9.63475
9.6727
9.68542
9.75125
9.79253
9.79472
9.828
9.89718
9.99204
10.0445
10.0489
10.0786
10.0591
9.72282
9.93384
10.2846
10.4472
10.6078
10.6045
10.6802
10.6879
10.7831
10.7832
10.8373
10.8169
10.9001
10.8692
10.8889
10.9346
10.9166
10.8756
9.64571
9.81623
10.0387
10.213
10.363
10.4128
10.4644
10.4809
10.5601
10.6319
10.6788
10.7051
10.703
10.6846
10.6379
10.7123
10.716
10.7514
9.61521
9.73327
9.87943
10.0452
10.152
10.2415
10.3001
10.2984
10.3143
10.3616
10.4031
10.4379
10.4176
10.4656
10.5108
10.5602
10.5912
10.6534
9.61178
9.7365
9.85917
9.97827
10.0116
10.0964
10.1482
10.1668
10.1962
10.1913
10.212
10.2814
10.3028
10.3582
10.4085
10.4246
10.3964
10.4544
9.48219
9.54417
9.58789
9.7114
9.78804
9.89819
10.0015
10.0224
10.0574
10.0589
10.118
10.1763
10.1613
10.1879
10.1715
10.2198
10.2519
10.2609
9.50702
9.52049
9.53281
9.60473
9.65003
9.75782
9.86523
9.90964
9.95012
9.98833
10.0473
10.0522
10.0544
10.0992
10.0988
10.1503
10.1858
10.2209
9.54033
9.56833
9.62123
9.72923
9.79027
9.85598
9.86131
9.87221
9.94324
9.9925
10.0231
10.0173
10.0449
10.0505
10.0203
10.0627
10.0627
10.1051
9.49427
9.5198
9.57263
9.62926
9.69085
9.74835
9.78874
9.82919
9.88025
9.90402
9.92131
9.91312
9.90883
9.91341
9.93719
9.95469
9.98384
10.0591
9.61381
9.62253
9.63211
9.62035
9.6426
9.69683
9.78362
9.83711
9.86855
9.87773
9.9025
9.92523
9.95268
10.0164
10.047
10.0043
9.97339
9.96411
9.54348
9.58052
9.6201
9.72696
9.75677
9.73462
9.74759
9.70549
9.70249
9.71927
9.77332
9.84764
9.87088
9.92359
9.9363
9.96304
9.99685
9.99131
9.55995
9.81382
10.2207
10.433
10.5934
10.6167
10.6688
10.6299
10.7494
10.7214
10.8262
10.8299
10.8873
10.9044
10.9132
10.9041
10.9639
10.8948
9.59534
9.71218
9.94244
10.1622
10.2753
10.3925
10.4565
10.4749
10.548
10.5244
10.5992
10.6182
10.6801
10.7565
10.7605
10.8181
10.7996
10.8597
9.60318
9.67719
9.82098
10.0768
10.1453
10.2696
10.2927
10.2737
10.3395
10.3221
10.391
10.4242
10.442
10.482
10.4979
10.5375
10.5009
10.6144
9.62683
9.67189
9.7483
9.88735
9.9269
10.0583
10.0822
10.1085
10.2267
10.2435
10.2971
10.3122
10.335
10.327
10.3487
10.445
10.4064
10.4468
9.5628
9.62518
9.69184
9.79771
9.87149
9.9745
10.0232
10.0918
10.1591
10.1728
10.1861
10.1586
10.1991
10.2125
10.2218
10.303
10.2926
10.2734
9.54709
9.52597
9.56741
9.60299
9.66282
9.76408
9.87536
9.94118
9.95503
9.99737
10.0248
10.0555
10.1012
10.0896
10.0666
10.0879
10.1007
10.1248
9.54775
9.56251
9.61685
9.65306
9.71004
9.80014
9.87362
9.88045
9.89968
9.92149
9.92478
9.96005
9.9664
9.97572
9.97266
10.0164
10.0698
10.1347
9.6279
9.59935
9.58486
9.62201
9.64925
9.68145
9.73131
9.74923
9.83569
9.87216
9.90048
9.95721
9.92689
9.99094
9.97653
9.94425
9.95832
10.027
9.58933
9.59121
9.60449
9.66287
9.69551
9.72048
9.78977
9.81133
9.84285
9.82126
9.82924
9.85296
9.82789
9.92088
9.92614
9.97014
9.97755
9.9704
9.61361
9.62268
9.62335
9.59076
9.55548
9.58309
9.64038
9.70461
9.75552
9.76623
9.83789
9.85526
9.85078
9.89724
9.89401
9.9314
9.92739
9.94702
9.59354
9.86083
10.271
10.4946
10.6488
10.6639
10.7505
10.7344
10.8049
10.7761
10.8495
10.8168
10.865
10.8536
10.8575
10.8741
10.9282
10.9216
9.54536
9.67127
9.94022
10.1565
10.3241
10.3768
10.4093
10.3879
10.4192
10.4733
10.5725
10.6619
10.7212
10.7801
10.7662
10.7531
10.7548
10.7718
9.55221
9.70448
9.8771
10.0727
10.1991
10.2381
10.2606
10.2429
10.2634
10.2719
10.3104
10.3795
10.3759
10.4153
10.4661
10.4806
10.4366
10.5543
9.54739
9.61593
9.66658
9.82659
9.97487
10.0674
10.128
10.1738
10.2355
10.269
10.3127
10.3405
10.3625
10.3898
10.357
10.374
10.3487
10.3832
9.69013
9.7519
9.71752
9.77717
9.8404
9.89286
9.92749
9.96816
10.0195
10.0709
10.1144
10.1367
10.1822
10.2387
10.2648
10.2869
10.2792
10.284
9.63453
9.68855
9.68288
9.75021
9.78425
9.83582
9.91341
9.96044
9.9998
10.0101
10.0285
10.0701
10.102
10.1503
10.1803
10.1982
10.1883
10.1791
9.63233
9.65719
9.59693
9.6267
9.6243
9.7019
9.77152
9.79505
9.86223
9.91026
9.97592
10.0794
10.1242
10.1576
10.1792
10.2175
10.2361
10.2472
9.63485
9.6718
9.64038
9.65565
9.62786
9.66721
9.76281
9.82556
9.86915
9.91746
9.94519
9.99097
9.93426
9.9365
9.98864
10.0167
10.013
10.0434
9.62827
9.63536
9.6252
9.67279
9.71434
9.74459
9.8216
9.89781
9.94599
9.99621
9.98689
9.95701
9.86105
9.84984
9.88641
9.95263
9.97971
10.0226
9.61935
9.58584
9.59526
9.61604
9.68296
9.70341
9.70732
9.73759
9.77298
9.79987
9.84746
9.90523
9.95247
10.0053
9.95781
9.97384
10.0346
10.063
9.68283
9.89449
10.2557
10.4629
10.5767
10.5772
10.6477
10.6745
10.7977
10.8329
10.919
10.8943
10.9204
10.886
10.9052
10.8484
10.9181
10.9523
9.6877
9.8445
10.0939
10.2405
10.3686
10.4101
10.424
10.4869
10.5596
10.6339
10.6426
10.6633
10.6904
10.6908
10.7134
10.6913
10.7345
10.81
9.60837
9.76504
9.89954
9.98894
10.094
10.1493
10.1899
10.2461
10.2581
10.3329
10.3657
10.4223
10.4287
10.5249
10.5337
10.5313
10.5443
10.5594
9.60231
9.69998
9.75431
9.88206
9.95402
9.99637
10.0598
10.0986
10.123
10.1971
10.2309
10.2898
10.2816
10.3495
10.3933
10.3665
10.339
10.3439
9.52236
9.58506
9.62038
9.79015
9.87767
9.98064
10.0518
10.0665
10.1025
10.0972
10.1111
10.1904
10.1899
10.2183
10.2573
10.2752
10.2724
10.2387
9.7003
9.72539
9.71524
9.74413
9.74779
9.85801
9.91968
9.96736
10.0011
9.97059
10.0102
10.0248
10.0273
10.0789
10.0759
10.1513
10.2234
10.2259
9.5099
9.59445
9.61434
9.73279
9.77992
9.85794
9.88981
9.92015
9.94128
9.95758
10.0222
9.99094
9.98237
9.99856
10.0145
10.0667
10.0613
10.0953
9.66173
9.66329
9.6756
9.76732
9.77477
9.82638
9.83175
9.85756
9.87429
9.89668
9.95438
9.97379
9.98455
9.95118
9.97465
10.0269
10.0271
10.0379
9.68177
9.63464
9.608
9.61306
9.65826
9.68253
9.68725
9.7563
9.80208
9.85354
9.85658
9.8858
9.94832
9.93098
9.93753
9.92968
9.95144
9.95343
9.63992
9.66965
9.68481
9.64679
9.64859
9.61953
9.68884
9.73299
9.76527
9.80245
9.81854
9.85684
9.87686
9.90375
9.93554
9.92242
9.95371
9.98037
9.64158
9.82226
10.1379
10.4058
10.5958
10.6654
10.7392
10.7471
10.8146
10.8034
10.8672
10.8241
10.8714
10.8486
10.8659
10.8716
10.8988
10.9097
9.58975
9.7075
9.92522
10.1358
10.2856
10.39
10.4564
10.5385
10.5305
10.5643
10.6004
10.6068
10.6865
10.7212
10.7502
10.7579
10.7323
10.7226
9.54987
9.68716
9.83321
10.0258
10.1575
10.2688
10.2839
10.326
10.2872
10.3175
10.3777
10.4179
10.4469
10.5085
10.5711
10.6235
10.6616
10.6541
9.65916
9.72827
9.77963
9.91104
9.97842
10.0382
10.0596
10.1552
10.2023
10.2625
10.3169
10.3622
10.3584
10.3898
10.398
10.418
10.433
10.4209
9.54314
9.6682
9.75614
9.88033
9.93673
10.0181
10.0578
10.0978
10.1131
10.1279
10.1457
10.1732
10.1874
10.2437
10.2683
10.2934
10.3161
10.3121
9.55917
9.59308
9.62636
9.73478
9.7902
9.85885