/*--------------------------------*- C++ -*----------------------------------*\
| =========                 |                                                 |
| \\      /  F ield         | OpenFOAM: The Open Source CFD Toolbox           |
|  \\    /   O peration     | Version:  3.0.1                                 |
|   \\  /    A nd           | Web:      www.OpenFOAM.org                      |
|    \\/     M anipulation  |                                                 |
\*---------------------------------------------------------------------------*/
FoamFile
{
    version     2.0;
    format      ascii;
    class       volScalarField;
    location    "0.1";
    object      Ux_mode_1;
}
// * * * * * * * * * * * * * * * * * * * * * * * * * * * * * * * * * * * * * //

dimensions      [0 0 0 0 0 0 0];

internalField   nonuniform List<scalar> 
244500
(
-2.9372
-1.80233
-1.21076
-0.926669
-0.80393
-0.749192
-0.710343
-0.679317
-0.651076
-0.618982
-0.596239
-0.577877
-0.567263
-0.55811
-0.569655
-0.58672
-0.671989
-0.635821
-4.0683
-3.58659
-3.03321
-2.55536
-2.26573
-2.09986
-1.97697
-1.88687
-1.79726
-1.70738
-1.65414
-1.5871
-1.55654
-1.52195
-1.51993
-1.52659
-1.61701
-1.68886
-3.95076
-4.25376
-4.11678
-3.73961
-3.42749
-3.20886
-3.02915
-2.90203
-2.77077
-2.63361
-2.56247
-2.4505
-2.40047
-2.35032
-2.31679
-2.32304
-2.34849
-2.47799
-4.12036
-4.55446
-4.62682
-4.43351
-4.23671
-4.065
-3.88284
-3.75147
-3.61448
-3.44375
-3.36893
-3.22711
-3.15442
-3.10553
-3.03575
-3.05073
-3.01054
-3.13278
-4.1718
-4.42509
-4.62075
-4.66545
-4.66183
-4.59592
-4.45239
-4.34735
-4.25168
-4.08057
-4.01758
-3.87565
-3.78772
-3.75192
-3.66604
-3.68636
-3.61694
-3.69704
-4.14111
-4.30501
-4.52729
-4.68218
-4.74799
-4.7113
-4.58844
-4.52328
-4.52312
-4.42091
-4.4013
-4.30831
-4.24323
-4.22992
-4.16644
-4.1949
-4.12841
-4.18142
-4.1065
-4.08938
-4.37729
-4.61845
-4.69325
-4.67693
-4.59084
-4.53483
-4.58971
-4.56263
-4.56329
-4.51372
-4.50086
-4.50077
-4.48987
-4.54614
-4.48909
-4.54596
-2.89771
-1.82355
-1.24565
-0.95661
-0.820651
-0.75413
-0.70809
-0.673121
-0.648619
-0.622263
-0.599039
-0.585992
-0.584198
-0.58297
-0.606646
-0.636469
-0.746357
-0.701121
-3.89622
-3.58647
-3.08484
-2.60971
-2.2953
-2.10722
-1.96916
-1.87169
-1.79011
-1.70034
-1.64087
-1.59364
-1.57419
-1.5559
-1.59166
-1.61428
-1.76156
-1.82966
-3.95837
-4.27304
-4.16017
-3.78897
-3.45772
-3.22011
-3.024
-2.88427
-2.76397
-2.62013
-2.53014
-2.44839
-2.40786
-2.36957
-2.39887
-2.41475
-2.52501
-2.63608
-4.44984
-4.70843
-4.72988
-4.50347
-4.27284
-4.08414
-3.88986
-3.73905
-3.61455
-3.43733
-3.32549
-3.21559
-3.15481
-3.09828
-3.10935
-3.1245
-3.19293
-3.28118
-4.04651
-4.4651
-4.72734
-4.75116
-4.6975
-4.61037
-4.46409
-4.33552
-4.25456
-4.0936
-3.98506
-3.86209
-3.79548
-3.72567
-3.71588
-3.72809
-3.77587
-3.82466
-4.20126
-4.2781
-4.495
-4.63218
-4.68685
-4.6851
-4.62943
-4.57296
-4.58882
-4.51979
-4.45573
-4.33758
-4.29046
-4.22105
-4.19038
-4.19649
-4.23772
-4.26396
-3.95908
-4.17066
-4.39668
-4.49685
-4.52666
-4.52691
-4.55347
-4.54643
-4.61857
-4.67227
-4.69032
-4.57878
-4.57919
-4.5486
-4.49502
-4.49653
-4.52514
-4.54577
-2.88211
-1.78481
-1.23622
-0.964235
-0.829213
-0.755265
-0.709688
-0.673023
-0.650228
-0.626675
-0.599124
-0.587326
-0.579441
-0.578974
-0.56674
-0.602388
-0.577893
-0.635025
-3.87548
-3.57141
-3.10912
-2.65824
-2.33227
-2.12101
-1.97905
-1.86421
-1.79287
-1.71695
-1.64941
-1.62417
-1.57794
-1.56991
-1.53594
-1.59607
-1.52318
-1.69541
-4.23592
-4.44097
-4.28228
-3.8966
-3.52772
-3.24772
-3.04452
-2.86623
-2.75707
-2.64093
-2.54082
-2.51096
-2.42965
-2.40557
-2.35859
-2.40855
-2.32289
-2.48589
-4.11686
-4.48727
-4.62032
-4.50394
-4.30021
-4.08787
-3.90664
-3.70768
-3.58527
-3.45117
-3.32494
-3.3008
-3.20335
-3.14986
-3.10971
-3.11704
-3.05712
-3.14863
-4.00985
-4.22073
-4.5436
-4.69067
-4.66247
-4.54414
-4.44332
-4.28502
-4.19385
-4.0879
-3.959
-3.94546
-3.87222
-3.78276
-3.76629
-3.71619
-3.69767
-3.73258
-4.35361
-4.40605
-4.48802
-4.54962
-4.59408
-4.58505
-4.61182
-4.54052
-4.50719
-4.47784
-4.39071
-4.38239
-4.3752
-4.26999
-4.27779
-4.17757
-4.19671
-4.21811
-4.13467
-4.32091
-4.51382
-4.63132
-4.65447
-4.55815
-4.58441
-4.57107
-4.5655
-4.61589
-4.61152
-4.57284
-4.62478
-4.5552
-4.56919
-4.44123
-4.49749
-4.52248
-2.68437
-1.75064
-1.20815
-0.938482
-0.816548
-0.756805
-0.711838
-0.680105
-0.644903
-0.626438
-0.594023
-0.589637
-0.566769
-0.574459
-0.54294
-0.57114
-0.506753
-0.572381
-3.88525
-3.55846
-3.05324
-2.60359
-2.3141
-2.13729
-1.99146
-1.89533
-1.78503
-1.73454
-1.64361
-1.6342
-1.564
-1.57443
-1.49425
-1.55276
-1.41504
-1.54812
-4.0549
-4.24184
-4.09864
-3.77031
-3.48078
-3.272
-3.06102
-2.92498
-2.75167
-2.68054
-2.5401
-2.52376
-2.42245
-2.42004
-2.31879
-2.36682
-2.21925
-2.32437
-4.3412
-4.65031
-4.73033
-4.55997
-4.33628
-4.16567
-3.93599
-3.80146
-3.58868
-3.51295
-3.33996
-3.30907
-3.20303
-3.1674
-3.07975
-3.08467
-2.96454
-3.00713
-4.28999
-4.5319
-4.73614
-4.76721
-4.67329
-4.63072
-4.46968
-4.41233
-4.22104
-4.17139
-4.00418
-3.95093
-3.87051
-3.79232
-3.74202
-3.69811
-3.62307
-3.60667
-3.68657
-4.01519
-4.3201
-4.51036
-4.55118
-4.69237
-4.66239
-4.71853
-4.60237
-4.60336
-4.48285
-4.4087
-4.36507
-4.25859
-4.25303
-4.16278
-4.15891
-4.10903
-4.05552
-4.21463
-4.30904
-4.47561
-4.48916
-4.60442
-4.63893
-4.77729
-4.77253
-4.83025
-4.75426
-4.66349
-4.62704
-4.51514
-4.55878
-4.42086
-4.50411
-4.47157
-2.77615
-1.73656
-1.20319
-0.94128
-0.818844
-0.75125
-0.707127
-0.67474
-0.652754
-0.628271
-0.60351
-0.575454
-0.559701
-0.544269
-0.522109
-0.517411
-0.469504
-0.461483
-3.94306
-3.53311
-3.04126
-2.59756
-2.30543
-2.10509
-1.97519
-1.89376
-1.81571
-1.73571
-1.66718
-1.5969
-1.56936
-1.52215
-1.47562
-1.46279
-1.35526
-1.37536
-3.92394
-4.11531
-4.05788
-3.75226
-3.46834
-3.21395
-3.02789
-2.92356
-2.80838
-2.6873
-2.58266
-2.47036
-2.43995
-2.36663
-2.30877
-2.28672
-2.14225
-2.15949
-3.94361
-4.35156
-4.56628
-4.47239
-4.31503
-4.09291
-3.88927
-3.78919
-3.67018
-3.5334
-3.40781
-3.25128
-3.22301
-3.12744
-3.06899
-3.04519
-2.87497
-2.884
-4.23818
-4.31441
-4.59224
-4.70658
-4.71115
-4.58746
-4.43011
-4.38496
-4.31447
-4.20516
-4.09575
-3.9037
-3.88551
-3.77386
-3.72178
-3.70893
-3.52596
-3.53704
-4.15733
-4.35585
-4.69496
-4.77697
-4.7391
-4.65716
-4.56645
-4.59225
-4.60167
-4.56486
-4.53135
-4.34911
-4.36388
-4.25937
-4.22693
-4.22775
-4.05257
-4.08076
-4.04791
-4.27098
-4.58712
-4.5824
-4.51453
-4.54337
-4.60724
-4.70097
-4.73376
-4.71949
-4.73768
-4.58224
-4.62922
-4.55022
-4.55923
-4.56293
-4.39952
-4.44225
-2.85502
-1.74914
-1.18876
-0.917669
-0.795331
-0.727218
-0.68542
-0.657176
-0.632198
-0.606202
-0.586359
-0.565459
-0.550047
-0.539068
-0.521809
-0.512442
-0.4785
-0.477242
-4.01234
-3.55837
-3.01693
-2.55388
-2.25768
-2.05252
-1.9288
-1.84217
-1.75658
-1.68971
-1.62942
-1.57325
-1.54073
-1.50309
-1.45833
-1.44071
-1.35954
-1.39636
-4.12103
-4.261
-4.10452
-3.73551
-3.41895
-3.14357
-2.97062
-2.84666
-2.71086
-2.61747
-2.52358
-2.4383
-2.39537
-2.33655
-2.27277
-2.24936
-2.14384
-2.17161
-4.11744
-4.47791
-4.61076
-4.44786
-4.24814
-3.9973
-3.82874
-3.70536
-3.53984
-3.4368
-3.32199
-3.21422
-3.16841
-3.09347
-3.02211
-2.98466
-2.87862
-2.88022
-3.99683
-4.38911
-4.76001
-4.77442
-4.7028
-4.51547
-4.39454
-4.32347
-4.17066
-4.08685
-3.97915
-3.86398
-3.82965
-3.74492
-3.68567
-3.62741
-3.5265
-3.51476
-3.75579
-4.10307
-4.47557
-4.52107
-4.60286
-4.57919
-4.58801
-4.63687
-4.55209
-4.5114
-4.44303
-4.34274
-4.3348
-4.25174
-4.22158
-4.15808
-4.05422
-4.02559
-4.02726
-4.09508
-4.35489
-4.36426
-4.4959
-4.52465
-4.55755
-4.63919
-4.60165
-4.58298
-4.58622
-4.55379
-4.59871
-4.54985
-4.55905
-4.53368
-4.43528
-4.36616
-2.84808
-1.83369
-1.23667
-0.940977
-0.810476
-0.740715
-0.694381
-0.663091
-0.637422
-0.610333
-0.585737
-0.557203
-0.534618
-0.514546
-0.49217
-0.48209
-0.449431
-0.479297
-4.27097
-3.79257
-3.12888
-2.60162
-2.29019
-2.07805
-1.94157
-1.85284
-1.7758
-1.71043
-1.63991
-1.56669
-1.51281
-1.453
-1.40297
-1.3726
-1.29016
-1.34829
-4.2346
-4.37176
-4.14262
-3.75784
-3.45738
-3.18156
-2.98768
-2.85716
-2.74069
-2.6559
-2.55274
-2.4473
-2.37042
-2.2724
-2.20862
-2.15126
-2.05468
-2.08271
-4.17644
-4.4847
-4.5664
-4.44057
-4.29875
-4.05846
-3.85902
-3.7126
-3.57469
-3.48999
-3.37046
-3.24695
-3.16031
-3.02373
-2.96244
-2.86569
-2.77469
-2.76305
-3.97905
-4.29744
-4.55051
-4.63692
-4.68463
-4.55101
-4.41937
-4.31708
-4.20091
-4.15021
-4.04212
-3.92082
-3.84764
-3.6771
-3.63843
-3.50665
-3.41577
-3.3756
-4.30642
-4.36238
-4.57209
-4.63015
-4.72452
-4.66121
-4.6202
-4.60949
-4.55775
-4.56839
-4.50105
-4.4058
-4.37054
-4.18957
-4.18348
-4.04931
-3.96025
-3.8898
-4.09962
-4.17935
-4.44705
-4.43141
-4.49812
-4.46361
-4.5071
-4.57348
-4.58527
-4.63931
-4.6375
-4.61658
-4.63988
-4.50721
-4.53313
-4.44244
-4.37738
-4.29535
-2.69543
-1.77317
-1.22576
-0.94911
-0.81982
-0.749786
-0.700765
-0.66525
-0.640601
-0.607102
-0.590385
-0.555643
-0.538693
-0.510835
-0.490649
-0.461648
-0.424006
-0.44547
-4.25043
-3.69707
-3.1012
-2.62481
-2.3124
-2.10905
-1.97076
-1.87033
-1.78737
-1.69856
-1.65594
-1.55937
-1.53486
-1.44893
-1.40161
-1.3415
-1.25452
-1.24781
-4.33503
-4.43946
-4.23178
-3.85696
-3.50714
-3.22761
-3.03401
-2.89325
-2.76696
-2.63436
-2.57628
-2.4274
-2.41125
-2.27809
-2.21635
-2.12768
-2.03225
-1.9596
-4.14581
-4.53442
-4.72666
-4.58351
-4.32848
-4.071
-3.88862
-3.75356
-3.6173
-3.45726
-3.39877
-3.20428
-3.20752
-3.04403
-2.98105
-2.86402
-2.77833
-2.64362
-4.00121
-4.51533
-4.8473
-4.83716
-4.72329
-4.57143
-4.46582
-4.37626
-4.2664
-4.10572
-4.07148
-3.84987
-3.87602
-3.70514
-3.66319
-3.5276
-3.45726
-3.28981
-4.04805
-4.40056
-4.80048
-4.90172
-4.94345
-4.87325
-4.78794
-4.69329
-4.61093
-4.48057
-4.50398
-4.30395
-4.35377
-4.19997
-4.20953
-4.07861
-4.02445
-3.87758
-3.99483
-4.11181
-4.44077
-4.50708
-4.67406
-4.70596
-4.69178
-4.61799
-4.59593
-4.53477
-4.61685
-4.50453
-4.57368
-4.45116
-4.54934
-4.46236
-4.40623
-4.35809
-2.74287
-1.79509
-1.23912
-0.951937
-0.832569
-0.748003
-0.712184
-0.659688
-0.647984
-0.594435
-0.591455
-0.531519
-0.513843
-0.45066
-0.413202
-0.291906
-0.149579
-0.0801648
-3.95401
-3.62665
-3.09243
-2.60361
-2.33173
-2.08746
-1.98717
-1.84031
-1.80216
-1.66951
-1.66842
-1.51435
-1.51475
-1.36711
-1.31131
-1.11277
-0.899002
-0.637567
-3.99452
-4.28097
-4.17674
-3.78663
-3.52635
-3.18872
-3.05649
-2.8377
-2.78099
-2.58967
-2.59999
-2.37011
-2.40363
-2.19764
-2.14607
-1.90844
-1.74855
-1.31228
-4.1051
-4.32556
-4.5159
-4.36857
-4.31544
-4.01198
-3.92106
-3.67601
-3.62394
-3.39423
-3.43201
-3.13974
-3.21026
-2.97053
-2.93317
-2.65236
-2.60567
-2.03263
-4.41301
-4.40765
-4.67186
-4.59632
-4.71539
-4.47262
-4.46949
-4.25591
-4.25256
-4.01696
-4.11028
-3.78459
-3.88885
-3.64459
-3.63144
-3.30704
-3.36693
-2.75582
-4.30184
-4.35089
-4.61822
-4.4596
-4.70173
-4.55261
-4.66663
-4.5248
-4.60572
-4.38738
-4.56083
-4.26401
-4.3821
-4.17369
-4.19753
-3.84257
-3.97405
-3.4265
-4.19714
-4.00372
-4.51239
-4.40817
-4.67443
-4.52709
-4.62532
-4.48469
-4.64116
-4.47286
-4.72122
-4.58822
-4.67551
-4.5153
-4.61729
-4.22726
-4.37196
-4.02787
-2.8141
-1.78168
-1.23332
-0.95336
-0.831326
-0.755576
-0.718828
-0.673191
-0.651716
-0.613887
-0.599188
-0.568427
-0.551236
-0.51715
-0.49903
-0.448872
-0.424273
-0.394951
-3.86336
-3.55338
-3.06259
-2.60402
-2.32626
-2.10727
-1.99804
-1.86622
-1.81557
-1.72082
-1.68232
-1.59147
-1.55106
-1.47085
-1.42726
-1.33895
-1.28905
-1.14609
-4.01021
-4.27725
-4.15434
-3.78924
-3.50976
-3.21572
-3.06548
-2.86628
-2.79819
-2.66925
-2.62054
-2.48311
-2.4216
-2.31154
-2.24387
-2.13536
-2.09377
-1.857
-4.24003
-4.56831
-4.618
-4.43161
-4.30652
-4.0542
-3.92886
-3.70295
-3.63387
-3.49529
-3.45574
-3.29527
-3.21139
-3.0879
-2.99299
-2.87375
-2.83619
-2.58741
-4.14791
-4.4315
-4.61624
-4.58444
-4.63096
-4.47889
-4.44174
-4.26392
-4.23795
-4.12603
-4.12348
-3.979
-3.88082
-3.76689
-3.64301
-3.52705
-3.46999
-3.28581
-4.28913
-4.52957
-4.7895
-4.79492
-4.8697
-4.74347
-4.73068
-4.59822
-4.61082
-4.52248
-4.55308
-4.46193
-4.35827
-4.28494
-4.15127
-4.04505
-3.97083
-3.84387
-3.98899
-4.07819
-4.4692
-4.60504
-4.68652
-4.63217
-4.67558
-4.65613
-4.72926
-4.67454
-4.69872
-4.68866
-4.58443
-4.55117
-4.47024
-4.36558
-4.30918
-4.18214
-2.9371
-1.80294
-1.20871
-0.926251
-0.802979
-0.745684
-0.707874
-0.675374
-0.643286
-0.611533
-0.583592
-0.564915
-0.543133
-0.534165
-0.524464
-0.540016
-0.577672
-0.553477
-4.06826
-3.58829
-3.02865
-2.55666
-2.26307
-2.09353
-1.97539
-1.87813
-1.78373
-1.69756
-1.62895
-1.56893
-1.51224
-1.48812
-1.4385
-1.458
-1.46059
-1.52629
-3.95089
-4.25698
-4.10994
-3.74259
-3.42438
-3.20053
-3.03015
-2.89147
-2.75437
-2.62638
-2.53049
-2.43398
-2.3475
-2.31765
-2.22378
-2.24953
-2.1893
-2.28015
-4.1205
-4.56067
-4.61812
-4.43707
-4.23469
-4.05511
-3.88577
-3.74267
-3.59554
-3.44119
-3.33414
-3.21371
-3.10026
-3.07499
-2.94648
-2.97492
-2.87147
-2.93387
-4.17218
-4.43544
-4.60953
-4.66698
-4.66173
-4.58519
-4.45459
-4.34363
-4.23173
-4.08175
-3.98499
-3.8644
-3.7387
-3.7213
-3.58873
-3.61235
-3.50436
-3.51325
-4.1375
-4.32087
-4.51633
-4.6791
-4.75166
-4.70208
-4.58487
-4.52551
-4.50627
-4.4226
-4.37539
-4.29836
-4.2058
-4.19811
-4.10264
-4.12823
-4.05001
-4.02952
-4.10241
-4.11333
-4.36488
-4.6012
-4.69888
-4.67503
-4.58149
-4.5399
-4.58141
-4.56416
-4.54284
-4.50087
-4.4831
-4.47144
-4.43184
-4.48844
-4.45089
-4.46688
-2.89781
-1.82368
-1.24375
-0.956161
-0.819735
-0.750257
-0.705743
-0.66913
-0.640845
-0.614941
-0.586438
-0.571611
-0.561751
-0.558651
-0.563654
-0.593759
-0.656125
-0.621884
-3.89747
-3.58601
-3.08102
-2.61045
-2.29235
-2.10109
-1.96786
-1.86183
-1.77852
-1.6899
-1.61432
-1.57525
-1.53094
-1.51867
-1.5168
-1.54738
-1.60999
-1.68624
-3.96193
-4.27232
-4.15448
-3.79115
-3.45332
-3.21276
-3.02591
-2.87082
-2.75186
-2.61229
-2.49389
-2.43554
-2.35392
-2.33143
-2.31559
-2.3424
-2.36177
-2.47727
-4.45629
-4.70983
-4.72149
-4.50621
-4.2678
-4.07479
-3.89571
-3.72446
-3.60181
-3.43694
-3.2808
-3.21218
-3.09693
-3.06017
-3.03259
-3.05187
-3.0378
-3.12882
-4.0549
-4.47035
-4.71405
-4.7521
-4.69332
-4.59728
-4.47214
-4.32371
-4.23936
-4.10448
-3.9349
-3.86734
-3.74211
-3.68272
-3.65504
-3.66029
-3.63539
-3.68262
-4.20861
-4.29087
-4.47841
-4.62696
-4.68519
-4.66809
-4.63573
-4.5707
-4.56908
-4.54173
-4.40804
-4.34633
-4.25158
-4.17061
-4.14451
-4.1431
-4.1229
-4.12437
-3.95713
-4.20354
-4.37758
-4.47643
-4.53113
-4.50781
-4.54798
-4.55859
-4.59748
-4.69881
-4.65692
-4.58285
-4.56193
-4.49576
-4.45006
-4.46046
-4.46567
-4.40798
-2.88219
-1.78503
-1.23387
-0.964389
-0.827817
-0.752432
-0.7066
-0.669683
-0.643442
-0.618673
-0.588545
-0.573017
-0.559551
-0.554372
-0.528824
-0.561499
-0.494781
-0.579354
-3.87664
-3.57149
-3.10455
-2.6604
-2.32759
-2.11751
-1.97505
-1.85716
-1.78163
-1.70475
-1.62973
-1.60091
-1.54442
-1.52856
-1.47199
-1.53216
-1.3812
-1.57833
-4.23905
-4.44131
-4.27563
-3.90106
-3.52052
-3.24459
-3.04138
-2.8577
-2.74456
-2.62914
-2.5174
-2.48557
-2.39386
-2.35795
-2.28934
-2.34063
-2.16942
-2.35143
-4.12259
-4.48965
-4.61075
-4.50998
-4.29149
-4.08499
-3.90425
-3.70019
-3.57205
-3.44201
-3.30139
-3.27445
-3.17266
-3.09884
-3.04435
-3.05488
-2.90665
-3.02373
-4.0166
-4.22745
-4.52946
-4.69665
-4.65338
-4.54095
-4.43946
-4.28125
-4.18084
-4.08126
-3.94024
-3.91628
-3.85152
-3.73141
-3.70461
-3.6703
-3.55297
-3.62791
-4.35975
-4.41903
-4.46858
-4.55051
-4.58621
-4.58244
-4.60292
-4.54302
-4.49738
-4.47127
-4.38229
-4.34982
-4.36368
-4.22665
-4.21402
-4.15405
-4.06763
-4.13412
-4.13538
-4.34871
-4.49246
-4.61887
-4.64621
-4.56162
-4.56626
-4.57811
-4.56296
-4.60599
-4.61671
-4.54068
-4.6145
-4.53074
-4.49974
-4.43229
-4.40391
-4.46483
-2.68432
-1.75176
-1.20624
-0.938139
-0.815664
-0.753746
-0.710506
-0.676337
-0.640685
-0.619662
-0.58718
-0.578841
-0.553367
-0.557725
-0.521432
-0.544862
-0.470422
-0.550047
-3.8852
-3.56111
-3.04863
-2.6049
-2.31131
-2.13157
-1.9918
-1.88593
-1.77979
-1.72268
-1.63156
-1.61539
-1.54077
-1.54566
-1.45414
-1.50657
-1.34877
-1.48439
-4.05482
-4.24655
-4.09197
-3.77323
-3.47747
-3.26397
-3.06435
-2.91191
-2.74743
-2.6673
-2.52677
-2.50257
-2.39642
-2.38858
-2.27171
-2.31455
-2.14622
-2.2391
-4.34084
-4.65887
-4.72239
-4.56342
-4.33419
-4.15531
-3.94212
-3.78673
-3.58566
-3.49979
-3.32809
-3.2879
-3.1773
-3.1381
-3.03128
-3.03291
-2.89656
-2.91479
-4.28912
-4.54455
-4.7278
-4.76866
-4.67389
-4.61817
-4.4764
-4.398
-4.2196
-4.15779
-3.9962
-3.93138
-3.84618
-3.76871
-3.69403
-3.6518
-3.56591
-3.51523
-3.68373
-4.03253
-4.3142
-4.50555
-4.55507
-4.67917
-4.66551
-4.70635
-4.60386
-4.58757
-4.4805
-4.39256
-4.34266
-4.24415
-4.20468
-4.12626
-4.1187
-4.02001
-4.04823
-4.23503
-4.31127
-4.46116
-4.49186
-4.59664
-4.63559
-4.76721
-4.77771
-4.80862
-4.75769
-4.65022
-4.60684
-4.51436
-4.50672
-4.39544
-4.48856
-4.38912
-2.77629
-1.737
-1.2019
-0.941012
-0.818024
-0.749592
-0.705699
-0.672058
-0.649725
-0.623778
-0.598192
-0.56865
-0.551977
-0.533492
-0.512475
-0.504425
-0.457858
-0.452904
-3.94351
-3.53403
-3.039
-2.59777
-2.30326
-2.10253
-1.97321
-1.88844
-1.8114
-1.72734
-1.65789
-1.58499
-1.5547
-1.5018
-1.45818
-1.43386
-1.33112
-1.34522
-3.92493
-4.11681
-4.05523
-3.75294
-3.46559
-3.21106
-3.02628
-2.91686
-2.80457
-2.67772
-2.57192
-2.45756
-2.42284
-2.34189
-2.28961
-2.24931
-2.11342
-2.11632
-3.9454
-4.35377
-4.56355
-4.47309
-4.31263
-4.08977
-3.88855
-3.7817
-3.66739
-3.52447
-3.3963
-3.23995
-3.2061
-3.10086
-3.05131
-3.00463
-2.84694
-2.83288
-4.24049
-4.31771
-4.58986
-4.70614
-4.70974
-4.58373
-4.43041
-4.37761
-4.31197
-4.19893
-4.08347
-3.89454
-3.87134
-3.74733
-3.70627
-3.66903
-3.50504
-3.48091
-4.15987
-4.36077
-4.69419
-4.77273
-4.73943
-4.65252
-4.56722
-4.58672
-4.59744
-4.56309
-4.5194
-4.34053
-4.35432
-4.23691
-4.2118
-4.19029
-4.04517
-4.03034
-4.05246
-4.27295
-4.58759
-4.57654
-4.51767
-4.53628
-4.60656
-4.69861
-4.72587
-4.72193
-4.73023
-4.56971
-4.62319
-4.54002
-4.53989
-4.52869
-4.40631
-4.41684
-2.8547
-1.7496
-1.1882
-0.917166
-0.795139
-0.726295
-0.684834
-0.656049
-0.631032
-0.604242
-0.584672
-0.561683
-0.546256
-0.533792
-0.513922
-0.505705
-0.468015
-0.468765
-4.01118
-3.56006
-3.0156
-2.55425
-2.25663
-2.05111
-1.92843
-1.83902
-1.75634
-1.68502
-1.6277
-1.56566
-1.53477
-1.49358
-1.44337
-1.43211
-1.33421
-1.37801
-4.11867
-4.2638
-4.10246
-3.73733
-3.41698
-3.14241
-2.97107
-2.8412
-2.71304
-2.61017
-2.52343
-2.42874
-2.38945
-2.32631
-2.25334
-2.24542
-2.10867
-2.15001
-4.11382
-4.48177
-4.60785
-4.45158
-4.24526
-3.99656
-3.83086
-3.6968
-3.54558
-3.42665
-3.32411
-3.20374
-3.1633
-3.08508
-2.99712
-2.99085
-2.83758
-2.85235
-3.99233
-4.39513
-4.75549
-4.78037
-4.69914
-4.51479
-4.39932
-4.31105
-4.18022
-4.07435
-3.98314
-3.85379
-3.82494
-3.74131
-3.65233
-3.64427
-3.49024
-3.47313
-3.75059
-4.11047
-4.46903
-4.52978
-4.59932
-4.57731
-4.5965
-4.62057
-4.56417
-4.49799
-4.44753
-4.3339
-4.3302
-4.25479
-4.1816
-4.17465
-4.03544
-3.98432
-4.01908
-4.10997
-4.34397
-4.37303
-4.49476
-4.5193
-4.56834
-4.6209
-4.6116
-4.57239
-4.5893
-4.54533
-4.59601
-4.55763
-4.52328
-4.53069
-4.42859
-4.36839
-2.84784
-1.83396
-1.23708
-0.940749
-0.810647
-0.741161
-0.693594
-0.6636
-0.637853
-0.609773
-0.586307
-0.557906
-0.535194
-0.514938
-0.493585
-0.482033
-0.45144
-0.471093
-4.27
-3.7935
-3.12937
-2.60142
-2.29051
-2.07907
-1.9392
-1.85496
-1.77596
-1.70764
-1.64368
-1.56496
-1.5147
-1.45517
-1.40397
-1.3747
-1.29382
-1.3427
-4.23259
-4.37322
-4.14321
-3.75791
-3.45733
-3.1841
-2.98331
-2.86054
-2.74169
-2.64951
-2.56071
-2.44237
-2.37288
-2.27692
-2.20732
-2.15732
-2.05603
-2.08331
-4.17383
-4.48576
-4.56714
-4.44141
-4.29721
-4.06403
-3.85229
-3.71624
-3.57888
-3.47828
-3.38311
-3.23934
-3.16199
-3.03141
-2.95681
-2.87751
-2.77136
-2.76826
-3.97646
-4.29743
-4.55188
-4.63968
-4.67945
-4.56096
-4.41096
-4.31846
-4.21104
-4.13293
-4.05825
-3.91217
-3.84708
-3.68805
-3.6273
-3.52443
-3.40775
-3.38199
-4.305
-4.36067
-4.57352
-4.63755
-4.71137
-4.67775
-4.61292
-4.60464
-4.57502
-4.5484
-4.51737
-4.3981
-4.36762
-4.20141
-4.16792
-4.07099
-3.94891
-3.89105
-4.1023
-4.17598
-4.4446
-4.45003
-4.4735
-4.48176
-4.50688
-4.56117
-4.60585
-4.62431
-4.64961
-4.6097
-4.63916
-4.51313
-4.51736
-4.46313
-4.36633
-4.28516
-2.69467
-1.77456
-1.2254
-0.948814
-0.821535
-0.749045
-0.702988
-0.665355
-0.644281
-0.608677
-0.594356
-0.559457
-0.544203
-0.51465
-0.500015
-0.46517
-0.437803
-0.429569
-4.24748
-3.70187
-3.09851
-2.62597
-2.31562
-2.10428
-1.9787
-1.86698
-1.79579
-1.70039
-1.6633
-1.56664
-1.54416
-1.45637
-1.42131
-1.34592
-1.2881
-1.23673
-4.32892
-4.44797
-4.2271
-3.85906
-3.51274
-3.21766
-3.04716
-2.88574
-2.778
-2.63599
-2.58418
-2.43697
-2.42138
-2.28698
-2.24066
-2.13251
-2.07343
-1.95762
-4.13616
-4.54627
-4.7219
-4.58522
-4.33793
-4.05632
-3.90555
-3.74237
-3.62931
-3.45856
-3.40529
-3.21565
-3.2167
-3.05401
-3.00551
-2.87011
-2.82036
-2.64857
-3.98966
-4.53049
-4.84689
-4.83723
-4.73717
-4.55471
-4.4835
-4.36225
-4.27804
-4.10622
-4.07541
-3.86215
-3.88317
-3.71668
-3.6844
-3.53502
-3.49701
-3.2995
-4.03737
-4.41312
-4.80699
-4.89782
-4.9586
-4.86204
-4.80255
-4.67796
-4.62153
-4.47989
-4.50457
-4.31539
-4.35883
-4.21268
-4.22401
-4.08856
-4.0605
-3.88543
-3.98708
-4.12173
-4.45979
-4.50427
-4.67457
-4.70328
-4.69889
-4.60382
-4.60517
-4.53521
-4.61416
-4.51056
-4.58003
-4.46523
-4.55043
-4.47548
-4.44398
-4.35461
-2.74289
-1.79622
-1.23976
-0.951403
-0.835293
-0.748242
-0.713731
-0.663015
-0.65285
-0.597064
-0.599165
-0.539123
-0.5251
-0.461742
-0.436545
-0.30932
-0.190764
-0.0873144
-3.95334
-3.62935
-3.09308
-2.60246
-2.33771
-2.08398
-1.99317
-1.84548
-1.80766
-1.67605
-1.68166
-1.52362
-1.53751
-1.38217
-1.35474
-1.13647
-0.974675
-0.670711
-3.99278
-4.28501
-4.17775
-3.78411
-3.53625
-3.17981
-3.06574
-2.84392
-2.78399
-2.59915
-2.61514
-2.37655
-2.43318
-2.20988
-2.19717
-1.93215
-1.83148
-1.35916
-4.10259
-4.33033
-4.51907
-4.3632
-4.33099
-3.99745
-3.93115
-3.68354
-3.6233
-3.40519
-3.44853
-3.14154
-3.24354
-2.9791
-2.98416
-2.67562
-2.68145
-2.08025
-4.40975
-4.41349
-4.68126
-4.58511
-4.73809
-4.45432
-4.47631
-4.264
-4.24941
-4.0265
-4.1276
-3.78346
-3.9226
-3.65005
-3.67877
-3.33143
-3.42941
-2.78788
-4.3019
-4.3501
-4.63662
-4.43893
-4.733
-4.53969
-4.66526
-4.52883
-4.60583
-4.39381
-4.57382
-4.26531
-4.41651
-4.17325
-4.23893
-3.87417
-4.02307
-3.43053
-4.19982
-4.00066
-4.55008
-4.37287
-4.6978
-4.52803
-4.6162
-4.47308
-4.65331
-4.48317
-4.717
-4.59329
-4.72227
-4.5059
-4.642
-4.27836
-4.41571
-4.00213
-2.81476
-1.78109
-1.2353
-0.953543
-0.831651
-0.758781
-0.719998
-0.678233
-0.657376
-0.619768
-0.609426
-0.579461
-0.570026
-0.533003
-0.529179
-0.477503
-0.480377
-0.407399
-3.86586
-3.54986
-3.06871
-2.60112
-2.3276
-2.11448
-1.99581
-1.87946
-1.82195
-1.73002
-1.70382
-1.60441
-1.58836
-1.49254
-1.4866
-1.3818
-1.38669
-1.20702
-4.01572
-4.26959
-4.1647
-3.78331
-3.51071
-3.22653
-3.05764
-2.88553
-2.80344
-2.67702
-2.64995
-2.49075
-2.46923
-2.33039
-2.31484
-2.18371
-2.19139
-1.95826
-4.24953
-4.55449
-4.6327
-4.42382
-4.3055
-4.06798
-3.91516
-3.72503
-3.63929
-3.49828
-3.49161
-3.29579
-3.26368
-3.10225
-3.06345
-2.92907
-2.90941
-2.71564
-4.16296
-4.40983
-4.63429
-4.57557
-4.62735
-4.49333
-4.42431
-4.28454
-4.24531
-4.12318
-4.16241
-3.97466
-3.93374
-3.77708
-3.70472
-3.59109
-3.51153
-3.42098
-4.30809
-4.49754
-4.81267
-4.78776
-4.86574
-4.75476
-4.71274
-4.61206
-4.62107
-4.51633
-4.58914
-4.45647
-4.40969
-4.29325
-4.19954
-4.11127
-3.9867
-3.97997
-4.02398
-4.0271
-4.48706
-4.5991
-4.68568
-4.63642
-4.66409
-4.65969
-4.74338
-4.67111
-4.72491
-4.68696
-4.63088
-4.56159
-4.51226
-4.41298
-4.30426
-4.32921
-4.07644
-4.24982
-4.39909
-4.44694
-4.35785
-4.32179
-4.37313
-4.35501
-4.48161
-4.57002
-4.61122
-4.54261
-4.58458
-4.59131
-4.64053
-4.76596
-4.6942
-4.73196
-3.8724
-4.03015
-4.24475
-4.46962
-4.49818
-4.42593
-4.47869
-4.45034
-4.35362
-4.36816
-4.44146
-4.38227
-4.45714
-4.46912
-4.42799
-4.51565
-4.53548
-4.58305
-3.9309
-4.00333
-4.10118
-4.14951
-4.3958
-4.38978
-4.33408
-4.3012
-4.09934
-4.15416
-4.16177
-4.24472
-4.50693
-4.51615
-4.56749
-4.59556
-4.59298
-4.64162
-3.94897
-3.94362
-4.0197
-4.12327
-4.28624
-4.26746
-4.37019
-4.38714
-4.32919
-4.46219
-4.39548
-4.36625
-4.40616
-4.31135
-4.29624
-4.35735
-4.32365
-4.41402
-4.06908
-4.06677
-4.03335
-4.05429
-4.19185
-4.28188
-4.3155
-4.24558
-4.27659
-4.35177
-4.27168
-4.30578
-4.2495
-4.08363
-4.12471
-4.23317
-4.31723
-4.45165
-3.97409
-4.21949
-4.21036
-4.12866
-4.22945
-4.26946
-4.25848
-4.24935
-4.32777
-4.39915
-4.26376
-4.22941
-4.26569
-4.24364
-4.34024
-4.31996
-4.25243
-4.34108
-3.76304
-3.93186
-4.03898
-4.04672
-4.01079
-3.95277
-4.02666
-4.10015
-4.08134
-4.17199
-4.34576
-4.52643
-4.49903
-4.44435
-4.50021
-4.39317
-4.32756
-4.32654
-4.16927
-4.01374
-3.96593
-4.02211
-4.1639
-4.2929
-4.28225
-4.28324
-4.19935
-4.09558
-4.15475
-4.25225
-4.26975
-4.3105
-4.23933
-4.20171
-4.28582
-4.25055
-4.18871
-4.19911
-4.21176
-4.15673
-4.10941
-4.18477
-4.24567
-4.35827
-4.43531
-4.41234
-4.33908
-4.32329
-4.29203
-4.30865
-4.36439
-4.40636
-4.41465
-4.32749
-4.10496
-4.1394
-4.02608
-3.86805
-3.93143
-4.03996
-4.10762
-4.21057
-4.26127
-4.26591
-4.19776
-4.23783
-4.24474
-4.27657
-4.40689
-4.45452
-4.40034
-4.33835
-4.18815
-4.07034
-4.09052
-4.20796
-4.34439
-4.38366
-4.487
-4.43212
-4.35987
-4.44731
-4.61016
-4.54006
-4.62401
-4.75242
-4.68278
-4.64778
-4.61559
-4.64377
-4.23616
-4.27166
-4.22937
-4.33948
-4.46054
-4.51697
-4.67721
-4.73144
-4.51713
-4.44923
-4.6273
-4.50966
-4.49924
-4.62033
-4.55974
-4.53004
-4.50204
-4.62344
-4.23267
-4.26531
-4.16746
-4.17286
-4.16107
-4.22772
-4.25882
-4.36904
-4.35789
-4.37952
-4.47278
-4.49111
-4.56866
-4.52209
-4.57547
-4.60083
-4.45824
-4.46461
-3.75111
-3.97635
-4.11699
-4.22937
-4.21911
-4.17479
-4.18522
-4.18131
-4.15974
-4.26035
-4.27728
-4.28155
-4.3312
-4.24031
-4.39758
-4.56548
-4.43602
-4.27267
-4.0147
-3.87258
-3.95248
-4.06212
-4.2292
-4.37617
-4.41581
-4.44217
-4.34489
-4.33898
-4.28669
-4.28104
-4.47544
-4.45786
-4.46059
-4.55515
-4.49157
-4.51437
-4.24739
-4.19588
-4.23844
-4.14241
-4.18313
-4.22728
-4.16816
-4.19288
-4.18652
-4.20713
-4.21426
-4.28824
-4.36736
-4.32405
-4.35105
-4.32111
-4.2644
-4.40064
-4.27629
-4.16334
-4.15919
-4.07102
-4.10842
-4.06518
-4.12648
-4.29898
-4.35995
-4.37966
-4.37278
-4.36218
-4.3233
-4.29146
-4.29545
-4.3902
-4.45379
-4.38885
-4.19743
-4.18852
-4.18506
-4.24085
-4.31561
-4.29989
-4.27646
-4.29901
-4.27018
-4.10147
-3.99686
-3.95115
-3.95971
-4.0665
-4.07538
-4.17448
-4.24552
-4.18647
-3.86347
-3.9116
-3.97491
-4.01928
-4.03458
-4.03417
-4.03127
-4.12145
-4.17796
-4.12723
-4.13086
-4.17947
-4.24436
-4.31106
-4.27334
-4.30493
-4.28141
-4.12598
-3.94072
-3.96654
-3.94447
-3.92469
-4.09085
-4.18898
-4.19339
-4.25329
-4.22464
-4.20676
-4.22464
-4.23108
-4.20576
-4.06544
-3.98559
-3.98174
-3.98084
-4.07461
-3.88461
-4.01834
-4.13013
-4.19077
-4.40891
-4.48326
-4.54341
-4.5232
-4.44623
-4.47444
-4.63631
-4.56015
-4.57991
-4.64676
-4.65535
-4.5321
-4.65735
-4.69606
-4.16231
-4.16507
-4.27168
-4.30661
-4.28628
-4.39662
-4.42106
-4.42378
-4.42566
-4.29903
-4.53692
-4.37501
-4.28837
-4.72185
-4.78384
-4.57737
-4.76379
-4.7658
-4.01372
-3.88615
-4.07507
-4.23717
-4.22688
-4.24235
-4.26291
-4.47436
-4.49767
-4.48788
-4.60811
-4.59752
-4.49281
-4.57104
-4.65335
-4.32835
-4.41923
-4.53563
-4.11089
-3.94663
-4.06873
-4.24584
-4.22644
-4.21931
-4.17518
-4.37541
-4.33155
-4.34037
-4.40704
-4.40017
-4.4801
-4.24974
-4.34969
-4.42517
-4.40604
-4.42329
-4.31383
-4.26215
-4.26748
-4.28256
-4.26191
-4.25832
-4.19228
-4.21343
-4.314
-4.3702
-4.32476
-4.31322
-4.53008
-4.50943
-4.44419
-4.49364
-4.52714
-4.42918
-4.11889
-4.24123
-4.28714
-4.24283
-4.3418
-4.42671
-4.41397
-4.35987
-4.40842
-4.42743
-4.24256
-4.28915
-4.41177
-4.40852
-4.46689
-4.41578
-4.42297
-4.35465
-4.11804
-4.11126
-4.04714
-4.014
-4.14028
-4.15108
-4.14598
-4.1282
-4.09067
-4.07783
-4.08932
-4.19148
-4.18004
-4.20117
-4.35361
-4.37123
-4.35138
-4.30482
-4.15742
-4.13851
-4.00815
-3.99485
-4.09549
-4.13459
-4.14493
-4.15904
-4.15922
-4.17182
-4.21125
-4.2654
-4.31309
-4.36153
-4.33044
-4.33177
-4.29524
-4.23639
-3.93894
-3.99077
-4.05517
-4.14261
-4.18756
-4.17754
-4.126
-4.1197
-4.1101
-4.11621
-4.09764
-4.06316
-4.04051
-3.98911
-4.02218
-4.19687
-4.31045
-4.3718
-4.22769
-4.23668
-4.24737
-4.07612
-4.00712
-4.02485
-4.02288
-4.18878
-4.28079
-4.35611
-4.34853
-4.25911
-4.27232
-4.20721
-4.26425
-4.34711
-4.33286
-4.32281
-4.12931
-4.19634
-4.26525
-4.41161
-4.56045
-4.60301
-4.64868
-4.70685
-4.70797
-4.71467
-4.58451
-4.54296
-4.50532
-4.4831
-4.6226
-4.48006
-4.63217
-4.67308
-4.26489
-4.35878
-4.4665
-4.49054
-4.50773
-4.52992
-4.51149
-4.34731
-4.40482
-4.52376
-4.45134
-4.3815
-4.37372
-4.47968
-4.52177
-4.39621
-4.55882
-4.59142
-3.89028
-3.95621
-4.27654
-4.35311
-4.34259
-4.44147
-4.49461
-4.4087
-4.33449
-4.45016
-4.5474
-4.3993
-4.40055
-4.55193
-4.64379
-4.54888
-4.73799
-4.61748
-4.09225
-4.0757
-4.10275
-4.15363
-4.20577
-4.10857
-4.24101
-4.44171
-4.18933
-4.04441
-4.28322
-4.32972
-4.29665
-4.42222
-4.58819
-4.53131
-4.64844
-4.6056
-4.13476
-4.15148
-4.19536
-4.17175
-4.06143
-3.98341
-4.06088
-4.10787
-4.16083
-4.26028
-4.31431
-4.44093
-4.53421
-4.47675
-4.35195
-4.37227
-4.44352
-4.34961
-4.31879
-4.32432
-4.23786
-4.2817
-4.37232
-4.39624
-4.26831
-4.23541
-4.36891
-4.37272
-4.26044
-4.30824
-4.36275
-4.3785
-4.44959
-4.44532
-4.35664
-4.28955
-4.18326
-4.15246
-4.08551
-4.05078
-4.04432
-4.04355
-4.01544
-4.13933
-4.2462
-4.23618
-4.32487
-4.40111
-4.34099
-4.31321
-4.36023
-4.25129
-4.16332
-4.19888
-4.02719
-4.10297
-4.18676
-4.27659
-4.34218
-4.32047
-4.25518
-4.29654
-4.24599
-4.20804
-4.25204
-4.24821
-4.28122
-4.19484
-4.24962
-4.39505
-4.4212
-4.37137
-3.95537
-3.99419
-3.95843
-3.96121
-4.08277
-4.2084
-4.2317
-4.25492
-4.19458
-4.19772
-4.18265
-4.1743
-4.28275
-4.20894
-4.26096
-4.26639
-4.27273
-4.34705
-3.96746
-4.01139
-4.0305
-4.17807
-4.38692
-4.41702
-4.31505
-4.19922
-4.15974
-4.26091
-4.2196
-4.17855
-4.20637
-4.15963
-4.19191
-4.19259
-4.2307
-4.24194
-4.23895
-4.32098
-4.27355