/*--------------------------------*- C++ -*----------------------------------*\
| =========                 |                                                 |
| \\      /  F ield         | OpenFOAM: The Open Source CFD Toolbox           |
|  \\    /   O peration     | Version:  3.0.1                                 |
|   \\  /    A nd           | Web:      www.OpenFOAM.org                      |
|    \\/     M anipulation  |                                                 |
\*---------------------------------------------------------------------------*/
FoamFile
{
    version     2.0;
    format      ascii;
    class       volScalarField;
    location    "0.1";
    object      Ux_mode_3;
}
// * * * * * * * * * * * * * * * * * * * * * * * * * * * * * * * * * * * * * //

dimensions      [0 0 0 0 0 0 0];

internalField   nonuniform List<scalar> 
244500
(
1.6988
1.06649
0.733303
0.570818
0.491648
0.449479
0.413681
0.387105
0.358783
0.343755
0.315198
0.293757
0.260607
0.234472
0.210127
0.187157
0.174951
0.123704
2.38109
2.21031
1.88676
1.60547
1.41406
1.29514
1.19468
1.13285
1.0576
1.02065
0.942613
0.901907
0.829981
0.76998
0.709442
0.630456
0.591287
0.450358
2.60123
2.73009
2.61412
2.37594
2.15316
1.99881
1.85754
1.78054
1.67054
1.6245
1.50658
1.4536
1.36569
1.27614
1.20512
1.06274
1.02942
0.786191
2.55151
2.74968
2.80672
2.72102
2.60542
2.5192
2.39804
2.33895
2.21023
2.17282
2.03057
1.96053
1.87771
1.75625
1.70315
1.49749
1.48382
1.17956
2.56341
2.61949
2.75086
2.88071
2.94086
2.94277
2.84029
2.79576
2.64883
2.62491
2.48678
2.39501
2.33405
2.17984
2.16515
1.91768
1.91537
1.6147
2.67088
2.63267
2.78061
2.92493
2.96875
2.97971
2.92869
2.95967
2.85418
2.86932
2.78992
2.70203
2.68143
2.51122
2.54451
2.2932
2.29797
2.0367
2.54707
2.80126
2.98814
2.94241
2.85435
2.81255
2.84539
2.97312
2.92397
2.92735
2.89438
2.83486
2.86305
2.71622
2.79656
2.5882
2.62111
2.40023
1.61092
1.06495
0.726978
0.560417
0.482118
0.438752
0.411119
0.388371
0.36869
0.342661
0.323761
0.29272
0.273594
0.233264
0.238492
0.171682
0.251329
0.0418303
2.66426
2.26031
1.87653
1.57649
1.38893
1.26994
1.19333
1.13376
1.07723
1.01214
0.965744
0.886647
0.855559
0.756416
0.772849
0.584807
0.745662
0.309704
2.44097
2.61234
2.51795
2.29568
2.09969
1.95173
1.85122
1.77366
1.69345
1.60244
1.54287
1.42546
1.39484
1.24959
1.28594
1.00651
1.2103
0.68002
2.45521
2.62047
2.74532
2.68442
2.56415
2.45269
2.37645
2.31326
2.23099
2.12594
2.07247
1.9269
1.90326
1.72207
1.78307
1.44647
1.64768
1.13878
2.57259
2.69536
2.76848
2.73504
2.72441
2.72745
2.733
2.7116
2.64728
2.53853
2.5129
2.36427
2.35277
2.14739
2.23283
1.88225
2.0394
1.63125
2.4394
2.64775
2.92135
3.00876
3.02659
2.99032
2.94908
2.90649
2.86857
2.77812
2.80786
2.70255
2.71182
2.49692
2.6019
2.28457
2.37391
2.10166
2.78056
2.8028
2.88174
2.89956
2.95829
2.96251
2.96977
2.9696
3.00997
2.91567
2.95063
2.90162
2.92794
2.7173
2.83621
2.61301
2.64269
2.49357
1.68877
1.09845
0.756998
0.574749
0.492253
0.437199
0.408367
0.372321
0.358869
0.316546
0.311474
0.258804
0.262089
0.172846
0.213483
0.0251654
0.163947
-0.297144
2.56019
2.23927
1.9081
1.60117
1.4158
1.25628
1.17551
1.08441
1.04601
0.942742
0.941693
0.801664
0.845067
0.630189
0.771509
0.33115
0.692539
-0.297092
2.71134
2.75522
2.6407
2.36652
2.17242
1.94472
1.82883
1.69851
1.64484
1.49431
1.50994
1.29223
1.3868
1.06708
1.31525
0.696314
1.23539
-0.000495211
2.72575
2.75382
2.87685
2.78808
2.71525
2.48896
2.37185
2.21969
2.17208
1.98155
2.03157
1.7462
1.89114
1.48714
1.82453
1.09664
1.73281
0.477079
2.66466
2.76306
2.98686
2.93396
2.95473
2.77211
2.70769
2.56986
2.56919
2.36001
2.4632
2.14309
2.32581
1.87161
2.25887
1.51351
2.1283
1.04909
2.82383
2.76021
3.02016
2.98317
3.07092
2.89459
2.85259
2.71464
2.78484
2.5852
2.74825
2.45102
2.65746
2.19786
2.58654
1.91734
2.42496
1.61006
3.00496
2.7848
2.99611
2.84535
2.93248
2.7594
2.75379
2.62155
2.80338
2.64581
2.82833
2.61735
2.84421
2.44083
2.78289
2.27236
2.62271
2.1231
1.67583
1.10893
0.767309
0.582818
0.49821
0.445034
0.418558
0.379074
0.367657
0.32025
0.312499
0.244955
0.250176
0.143785
0.160748
-0.0650112
-0.00790825
-0.582746
2.52807
2.31094
1.95948
1.62643
1.43803
1.29269
1.2226
1.11005
1.07366
0.949691
0.947148
0.787852
0.839122
0.592464
0.697677
0.229721
0.435413
-0.571223
2.59075
2.75404
2.65508
2.37331
2.19085
1.99577
1.91409
1.74729
1.6958
1.50808
1.51574
1.28784
1.3889
1.0422
1.24099
0.616874
0.969113
-0.215398
2.68382
2.81988
2.88039
2.73836
2.68626
2.51668
2.48134
2.29265
2.24893
2.01463
2.02875
1.75525
1.89643
1.4858
1.76491
1.03636
1.50714
0.220784
2.53669
2.67457
2.90126
2.88932
2.99174
2.84636
2.87827
2.69281
2.67547
2.43338
2.44945
2.16627
2.32716
1.89047
2.23638
1.45087
1.9923
0.706929
2.98423
2.84529
2.9516
2.81766
3.00875
2.88626
3.00798
2.86246
2.88339
2.70143
2.73272
2.49635
2.66133
2.23025
2.62472
1.84776
2.3849
1.22954
2.67598
2.5528
2.8591
2.75605
3.00904
2.81898
2.91489
2.80891
2.86945
2.82808
2.8873
2.75143
2.89006
2.48647
2.8822
2.20788
2.67514
1.7217
1.86848
1.16865
0.781914
0.58734
0.509664
0.460027
0.435771
0.393702
0.3747
0.328019
0.321181
0.270262
0.27582
0.209749
0.239733
0.138996
0.279277
0.00276263
2.80599
2.40486
1.96863
1.61216
1.43403
1.30124
1.24476
1.12938
1.08953
0.979396
0.971404
0.837431
0.864606
0.685423
0.778062
0.510015
0.797027
0.258629
2.70231
2.8787
2.68305
2.35218
2.16225
1.98333
1.9266
1.76126
1.71173
1.55803
1.55703
1.36319
1.41077
1.1468
1.27771
0.907383
1.23938
0.610627
2.53145
2.83938
2.90762
2.73162
2.64262
2.47893
2.47337
2.29608
2.25303
2.07505
2.08551
1.86219
1.92274
1.61444
1.7451
1.34201
1.63842
1.03335
2.62458
2.8207
2.93759
2.78572
2.79631
2.67686
2.77705
2.65628
2.65214
2.48583
2.51053
2.29818
2.36689
2.06094
2.16674
1.78206
1.99987
1.4916
2.55524
2.67638
2.86237
2.76083
2.90126
2.81442
2.9683
2.91322
2.92996
2.78366
2.80612
2.62909
2.70803
2.44172
2.52152
2.19357
2.31632
1.94284
2.41247
2.4842
2.94184
2.99939
3.17873
2.9931
2.99051
2.95334
2.9857
2.88492
2.91355
2.78413
2.87949
2.68113
2.7468
2.52758
2.56325
2.3299
1.80091
1.11875
0.749954
0.567848
0.482849
0.437444
0.408897
0.384013
0.36957
0.34626
0.324005
0.291241
0.27356
0.241658
0.23448
0.199948
0.242207
0.126347
2.54514
2.23867
1.91296
1.60969
1.40314
1.27097
1.19537
1.13493
1.09062
1.01897
0.960103
0.881563
0.844047
0.759537
0.751462
0.647163
0.715505
0.529056
2.57312
2.72401
2.65186
2.39582
2.15249
1.96337
1.85994
1.78235
1.7232
1.61984
1.53406
1.41907
1.37083
1.24195
1.23622
1.08056
1.14245
0.919787
2.7601
2.92088
3.0279
2.90644
2.70449
2.50308
2.40061
2.32986
2.27871
2.16537
2.06607
1.92133
1.87129
1.70666
1.70213
1.51731
1.55593
1.33079
2.6248
2.85022
3.04791
3.00566
2.88098
2.75633
2.73396
2.72266
2.70865
2.61013
2.5196
2.35546
2.31805
2.13295
2.1265
1.93827
1.94128
1.75128
2.25059
2.5799
2.85821
2.95817
2.98686
2.95407
2.96094
2.94932
2.9337
2.84955
2.80153
2.64949
2.65369
2.48418
2.47817
2.31953
2.2808
2.13377
2.63937
2.4324
2.53246
2.7055
2.87336
2.95653
3.01364
2.99713
2.97224
2.89395
2.90572
2.79059
2.85007
2.74272
2.73847
2.64014
2.58148
2.43037
1.9133
1.16218
0.779426
0.60245
0.518467
0.466121
0.424737
0.384847
0.350573
0.326852
0.304272
0.283993
0.261477
0.233545
0.198814
0.176646
0.144794
0.107619
2.47201
2.21367
1.9325
1.67233
1.47757
1.33297
1.21508
1.10974
1.02675
0.969104
0.912922
0.872296
0.825994
0.763743
0.697422
0.645854
0.560942
0.477089
2.71316
2.86242
2.75312
2.49739
2.24847
2.0529
1.89052
1.74362
1.62379
1.53858
1.4533
1.39636
1.34292
1.26022
1.17749
1.10969
0.992364
0.861081
2.69213
3.01702
3.06471
2.90086
2.71038
2.56546
2.43266
2.29221
2.15608
2.05526
1.94807
1.87205
1.82167
1.73048
1.64031
1.56709
1.44215
1.2757
2.60434
2.79235
2.90787
2.89086
2.86803
2.86111
2.81375
2.71654
2.58515
2.48492
2.37273
2.27765
2.23405
2.14848
2.05993
1.98436
1.88058
1.70623
2.70815
2.8282
2.93443
3.0005
3.01393
2.98662
2.94666
2.90684
2.82792
2.77058
2.68811
2.58727
2.55132
2.48459
2.41577
2.32959
2.27112
2.11533
2.77963
2.71816
2.81163
2.87576
2.86375
2.83367
2.91487
3.05261
3.07235
3.03136
2.94565
2.81489
2.76913
2.72294
2.69213
2.58162
2.57539
2.44693
1.64253
1.09917
0.76116
0.583858
0.499336
0.455781
0.42109
0.392543
0.368941
0.351762
0.327771
0.304481
0.286432
0.25525
0.239305
0.221435
0.220301
0.111201
2.88426
2.41781
1.96817
1.6437
1.4435
1.32174
1.22059
1.14925
1.08506
1.03264
0.970177
0.909432
0.860114
0.779875
0.761005
0.689003
0.687701
0.511317
2.55476
2.65546
2.59205
2.39347
2.19649
2.0476
1.90596
1.80829
1.71622
1.63626
1.54804
1.45799
1.38794
1.26026
1.24891
1.1271
1.11453
0.93677
2.56917
2.83689
3.00662
2.91987
2.75798
2.6237
2.47763
2.37694
2.27754
2.18337
2.0805
1.97138
1.89385
1.71808
1.71658
1.56843
1.50851
1.38737
2.56357
2.69689
2.87325
2.9309
2.91704
2.90805
2.84234
2.78765
2.7142
2.63587
2.53133
2.41733
2.35626
2.13903
2.1368
2.00537
1.87019
1.81401
2.6813
2.63191
2.74448
2.85158
2.8784
2.92231
2.91852
2.9192
2.8908
2.88005
2.80939
2.71754
2.71964
2.50096
2.47726
2.39791
2.22907
2.16446
2.20888
2.45376
2.64703
2.76455
2.77
2.8133
2.85864
2.90052
2.8666
2.91674
2.90661
2.84373
2.94598
2.81043
2.74249
2.69421
2.606
2.44505
1.72936
1.1375
0.770989
0.593676
0.503062
0.464878
0.420696
0.393047
0.353466
0.342768
0.289885
0.276749
0.213678
0.176129
0.0490569
0.0182994
-0.254693
-0.36553
2.84425
2.43324
1.9947
1.69436
1.46378
1.34782
1.21616
1.14393
1.05372
1.02971
0.900279
0.897564
0.720757
0.691169
0.451471
0.434006
-0.0437697
-0.261973
2.8917
3.00567
2.78375
2.53526
2.24879
2.09353
1.89956
1.79391
1.66491
1.64107
1.45142
1.48497
1.2089
1.20136
0.89863
0.910495
0.339657
0.1524
2.79505
3.03268
3.00977
2.96872
2.76966
2.66616
2.46764
2.35419
2.19693
2.1903
1.94439
2.0403
1.69611
1.69077
1.36865
1.4034
0.768031
0.699591
2.9862
3.167
3.14818
3.19757
3.04162
2.99973
2.84274
2.76365
2.59894
2.6409
2.34113
2.50528
2.16482
2.12463
1.83303
1.87315
1.2169
1.21335
2.37585
2.68101
2.76751
2.97295
2.92191
2.99458
2.95467
2.98316
2.83591
2.96807
2.62583
2.80773
2.57888
2.47835
2.25462
2.29375
1.69042
1.65736
2.65872
3.00251
3.03028
3.15832
3.02349
2.97095
2.9059
3.00336
2.84606
3.08308
2.76979
2.84653
2.84513
2.74367
2.56797
2.65161
2.1957
2.03755
1.67327
1.05784
0.731351
0.568287
0.484483
0.445475
0.403536
0.381223
0.350738
0.344857
0.321451
0.313991
0.282268
0.270762
0.254753
0.266395
0.279285
0.203595
2.4943
2.24646
1.89698
1.60784
1.40251
1.28834
1.16213
1.10905
1.03255
1.02539
0.953019
0.929712
0.843673
0.818303
0.765097
0.754612
0.734353
0.702046
2.75876
2.77862
2.59257
2.35756
2.1351
1.99699
1.81177
1.73822
1.62152
1.62351
1.51577
1.48486
1.3599
1.31918
1.23977
1.20348
1.13588
1.15825
2.68825
2.80351
2.81908
2.75721
2.63255
2.55112
2.35892
2.2861
2.13242
2.15117
2.02765
1.99487
1.85249
1.79066
1.70784
1.63312
1.54189
1.56704
2.57473
2.8459
2.95412
3.00991
2.97282
2.94617
2.77169
2.71629
2.53416
2.56634
2.45052
2.42135
2.29589
2.20178
2.1558
2.02597
1.95046
1.93165
2.39366
2.49032
2.65313
2.7973
2.87461
2.95567
2.90052
2.93206
2.76523
2.80407
2.7197
2.69684
2.63945
2.51169
2.54344
2.37594
2.32253
2.30646
2.48061
2.53532
2.63531
2.63014
2.72627
2.79416
2.84409
2.96016
2.84786
2.86581
2.81983
2.76654
2.81804
2.69851
2.7993
2.69294
2.61415
2.68197
1.69859
1.06702
0.733288
0.569688
0.491766
0.44785
0.413206
0.385144
0.358038
0.339426
0.313639
0.286487
0.256398
0.223503
0.200718
0.168192
0.151592
0.104932
2.38014
2.21194
1.88672
1.60369
1.41461
1.29144
1.19517
1.12803
1.05803
1.01077
0.941991
0.886395
0.824428
0.747374
0.694725
0.594478
0.552382
0.403814
2.59927
2.73254
2.61447
2.37399
2.15443
1.99381
1.85935
1.77326
1.67388
1.6104
1.50862
1.43418
1.36061
1.24959
1.18867
1.02377
0.983985
0.736218
2.54823
2.75247
2.80828
2.71914
2.60764
2.51342
2.40163
2.32863
2.21794
2.15546
2.03497
1.94136
1.87192
1.73152
1.68481
1.46349
1.43753
1.12813
2.55948
2.62172
2.75471
2.87903
2.94384
2.93642
2.84591
2.78157
2.661
2.60679
2.49082
2.3807
2.32611
2.16013
2.14548
1.89072
1.87409
1.56444
2.6686
2.63216
2.78538
2.9234
2.97277
2.97329
2.93652
2.94199
2.86803
2.85441
2.79039
2.69517
2.67223
2.49731
2.52569
2.27179
2.26609
1.9955
2.54304
2.80086
2.99599
2.94155
2.85563
2.8045
2.85466
2.95548
2.93544
2.91898
2.88967
2.83651
2.85285
2.7057
2.78604
2.56581
2.59911
2.37689
1.61066
1.06597
0.726214
0.560047
0.481906
0.437024
0.410414
0.38647
0.365981
0.339403
0.320143
0.28497
0.267939
0.220746
0.228057
0.150092
0.235906
0.00775959
2.66315
2.26328
1.87416
1.57745
1.3877
1.26637
1.19414
1.12778
1.07434
1.00627
0.95788
0.873639
0.846816
0.728879
0.759956
0.539566
0.720787
0.237032
2.43851
2.61745
2.51417
2.29836
2.098
1.94659
1.85477
1.76405
1.69194
1.59621
1.53264
1.41122
1.38756
1.21251
1.27771
0.950432
1.18353
0.599365
2.45119
2.62801
2.74028
2.68866
2.56294
2.44576
2.38358
2.30069
2.23072
2.12125
2.06089
1.91234
1.90074
1.67875
1.78049
1.38995
1.6179
1.07
2.56717
2.70618
2.76261
2.74001
2.7248
2.71828
2.74327
2.69801
2.64698
2.53613
2.5024
2.34849
2.35568
2.10288
2.23328
1.83325
2.00297
1.58667
2.4318
2.66179
2.9157
3.01218
3.03034
2.97796
2.95984
2.89612
2.86675
2.77564
2.80333
2.6857
2.71633
2.45774
2.60482
2.24571
2.32871
2.08323
2.76994
2.82184
2.87852
2.89488
2.96792
2.94966
2.97281
2.96765
3.00896
2.9046
2.95615
2.89128
2.92275
2.68677
2.84952
2.57909
2.58727
2.49896
1.68836
1.09939
0.755831
0.574743
0.491805
0.435596
0.407015
0.370618
0.356711
0.312726
0.308317
0.253411
0.255665
0.16423
0.207453
0.0102623
0.160809
-0.326136
2.55876
2.24229
1.90453
1.60364
1.4136
1.25296
1.17534
1.079
1.04336
0.935516
0.935996
0.7907
0.833676
0.612642
0.759444
0.298094
0.68617
-0.350117
2.70843
2.76074
2.63455
2.37178
2.1694
1.93982
1.83133
1.68986
1.64326
1.48552
1.50394
1.27873
1.37444
1.04602
1.30062
0.656202
1.22396
-0.0573771
2.72099
2.76288
2.86802
2.7955
2.71297
2.48242
2.37739
2.20873
2.17224
1.97182
2.02682
1.73167
1.87929
1.46724
1.80785
1.05742
1.71588
0.424714
2.65754
2.77705
2.97559
2.94249
2.955
2.76434
2.71475
2.55785
2.5719
2.34891
2.46128
2.12881
2.31382
1.85668
2.24105
1.4797
2.10623
1.00541
2.8134
2.78059
3.0076
2.98829
3.07498
2.88693
2.85858
2.70257
2.79202
2.57154
2.74964
2.43945
2.64449
2.18886
2.56928
1.89523
2.39567
1.57581
2.98875
2.8137
2.98651
2.84215
2.93892
2.75769
2.75409
2.607
2.81684
2.62945
2.83005
2.61157
2.8314
2.43552
2.76498
2.27065
2.59134
2.09147
1.6756
1.10923
0.766723
0.58253
0.497947
0.44328
0.417839
0.376905
0.365347
0.315761
0.308161
0.238301
0.240139
0.130904
0.14284
-0.0928827
-0.0529501
-0.619609
2.52739
2.31203
1.95776
1.6271
1.4371
1.28912
1.22293
1.10436
1.07097
0.941231
0.940624
0.77537
0.821947
0.572955
0.664759
0.186684
0.366141
-0.653316
2.58951
2.75609
2.65219
2.37518
2.1899
1.99092
1.91638
1.73903
1.6943
1.49747
1.51005
1.27298
1.36932
1.02377
1.20137
0.57234
0.900525
-0.314627
2.68204
2.82339
2.87607
2.74104
2.68599
2.51094
2.48571
2.28286
2.24954
2.00189
2.02598
1.73984
1.87547
1.4731
1.72186
0.994669
1.45202
0.113699
2.53395
2.68059
2.89538
2.89208
2.99258
2.84041
2.88401
2.68244
2.67949
2.41772
2.45062
2.1522
2.30436
1.88616
2.19183
1.41229
1.95798
0.598238
2.98022
2.85492
2.94407
2.81884
3.01078
2.88209
3.0133
2.85208
2.89273
2.68172
2.73758
2.48501
2.63742
2.23479
2.57984
1.81384
2.37275
1.12907
2.66764
2.56824
2.85359
2.75277
3.00747
2.82052
2.91893
2.7987
2.88424
2.80398
2.89445
2.73905
2.86913
2.4997
2.83376
2.1826
2.68462
1.64014
1.86853
1.16877
0.7811
0.587311
0.508932
0.459132
0.43472
0.391967
0.372859
0.325045
0.317513
0.265726
0.270524
0.201385
0.2311
0.129919
0.265927
-0.00572556
2.80625
2.40513
1.96711
1.61271
1.43227
1.30017
1.2428
1.12637
1.08679
0.973214
0.965812
0.82896
0.854698
0.669955
0.762975
0.49096
0.769785
0.235364
2.70294
2.87923
2.68097
2.35321
2.15993
1.9826
1.9242
1.75789
1.70942
1.55001
1.55175
1.35311
1.39979
1.12828
1.26126
0.885024
1.20396
0.584253
2.53257
2.84062
2.90498
2.7328
2.64006
2.47894
2.47064
2.2927
2.25206
2.06579
2.08158
1.85168
1.91287
1.59462
1.72868
1.32323
1.59609
1.0068
2.62585
2.82308
2.93443
2.78649
2.79367
2.6778
2.77419
2.65292
2.65285
2.47625
2.50817
2.28725
2.36039
2.0416
2.14797
1.77242
1.95728
1.45826
2.5562
2.68066
2.8589
2.76046
2.89864
2.81632
2.96557
2.90989
2.9316
2.77558
2.80578
2.61616
2.70643
2.42719
2.4969
2.19106
2.2873
1.90442
2.41262
2.48924
2.93969
2.9972
3.17522
2.99526
2.98875
2.95139
2.98503
2.88025
2.91775
2.76452
2.88141
2.678
2.71653
2.52197
2.55514
2.30815
1.80096
1.11906
0.749185
0.568008
0.482247
0.436924
0.408126
0.382667
0.367881
0.343723
0.321201
0.286902
0.268685
0.23474
0.223807
0.18978
0.222492
0.11215
2.54548
2.23926
1.91127
1.61054
1.40159
1.27057
1.19401
1.13273
1.08791
1.01431
0.955533
0.87326
0.83651
0.74605
0.734021
0.631375
0.676264
0.503942
2.57386
2.72501
2.6495
2.39717
2.15044
1.96323
1.8584
1.78016
1.72048
1.61449
1.5294
1.40864
1.36422
1.22466
1.21752
1.06644
1.09168
0.89853
2.76138
2.92294
3.02511
2.90776
2.70233
2.50321
2.39892
2.32819
2.27628
2.16016
2.06255
1.90895
1.86845
1.68644
1.6829
1.51208
1.49358
1.31968
2.62648
2.8533
3.04536
3.00589
2.87889
2.7566
2.73182
2.72196
2.70644
2.6056
2.51861
2.34033
2.32109
2.11208
2.10282
1.94795
1.87191
1.74181
2.25203
2.58377
2.85721
2.95598
2.9848
2.95429
2.95776
2.9503
2.93117
2.84581
2.80445
2.6312
2.66202
2.46807
2.44687
2.33866
2.2221
2.11735
2.6408
2.43751
2.534
2.69962
2.87092
2.95636
3.00812
3.00042
2.96855
2.89074
2.91284
2.77159
2.85885
2.73589
2.70731
2.64663
2.54876
2.42517
1.91365
1.16123
0.77925
0.603533
0.517276
0.466625
0.424412
0.384398
0.34942
0.326177
0.302166
0.282659
0.259133
0.230877
0.194003
0.172426
0.136034
0.0971691
2.47368
2.21055
1.93296
1.67376
1.4748
1.33627
1.21239
1.10999
1.02495
0.967111
0.909433
0.870562
0.821565
0.759032
0.689964
0.639862
0.545018
0.464484
2.71694
2.85719
2.75376
2.49896
2.24393
2.05919
1.88587
1.74486
1.62208
1.53602
1.44901
1.39457
1.33842
1.25372
1.17022
1.10435
0.973096
0.852093
2.69833
3.00996
3.06422
2.90254
2.70358
2.57393
2.42696
2.29462
2.15443
2.05333
1.94344
1.86912
1.81933
1.72154
1.63353
1.56429
1.41989
1.27389
2.6126
2.78372
2.90358
2.89282
2.85889
2.87011
2.80832
2.72096
2.58306
2.48487
2.36942
2.27115
2.23587
2.13788
2.05158
1.98558
1.85517
1.71106
2.71708
2.82028
2.9255
3.0044
3.00438
2.9927
2.94268
2.91482
2.82446
2.77275
2.68888
2.57576
2.55605
2.47587
2.40429
2.33272
2.24598
2.12126
2.78842
2.71416
2.79421
2.87831
2.86004
2.83364
2.91484
3.06562
3.06745
3.03495
2.95067
2.8014
2.7714
2.71822
2.68069
2.57915
2.55654
2.44985
1.643
1.0976
0.76187
0.584541
0.498279
0.456782
0.42076
0.392814
0.368646
0.351903
0.327031
0.305042
0.285728
0.255616
0.239614
0.222198
0.220863
0.111094
2.88614
2.41317
1.97089
1.64351
1.44154
1.32581
1.2174
1.15154
1.08418
1.03198
0.970795
0.910261
0.85839
0.783091
0.759972
0.691138
0.688246
0.524157
2.5589
2.64769
2.59614
2.39266
2.19308
2.05506
1.89997
1.81246
1.71549
1.63393
1.55043
1.45902
1.38464
1.26693
1.24537
1.13133
1.11102
0.962357
2.5755
2.82577
3.0101
2.91933
2.7523
2.63391
2.46989
2.38219
2.27809
2.17878
2.08411
1.9731
1.88795
1.72863
1.71037
1.57462
1.49916
1.4259
2.57118
2.68265
2.87205
2.93158
2.90885
2.91921
2.83523
2.79308
2.71704
2.62969
2.53472
2.42001
2.34698
2.15271
2.12937
2.01176
1.85404
1.86675
2.68879
2.61935
2.73534
2.85555
2.87042
2.93103
2.91496
2.92345
2.89633
2.87392
2.81114
2.72055
2.70676
2.51454
2.47216
2.40343
2.20267
2.22741
2.21486
2.44343
2.6274
2.76877
2.76881
2.81669
2.86358
2.90449
2.87523
2.91158
2.90618
2.84579
2.93045
2.81679
2.74335
2.70238
2.569
2.49789
1.72975
1.13593
0.771238
0.595672
0.501242
0.466629
0.421018
0.393271
0.354066
0.344855
0.289831
0.280687
0.216873
0.182559
0.0558507
0.0310003
-0.235488
-0.339475
2.84627
2.42844
1.99602
1.69728
1.45906
1.35526
1.21252
1.1457
1.05664
1.02951
0.903081
0.905244
0.722367
0.707271
0.45919
0.456835
-0.0117636
-0.209155
2.89637
2.99768
2.78512
2.53923
2.23988
2.10724
1.89211
1.79602
1.67145
1.63601
1.45714
1.49502
1.20497
1.22603
0.902123
0.936867
0.371133
0.220146
2.80277
3.02214
3.00844
2.97511
2.75472
2.68526
2.45845
2.35448
2.2091
2.17942
1.9513
2.05417
1.68295
1.72397
1.36597
1.43012
0.792768
0.779311
2.99667
3.15361
3.13951
3.20926
3.01931
3.02121
2.83608
2.76017
2.61753
2.62659
2.34552
2.52526
2.14
2.16559
1.82436
1.89641
1.23296
1.30488
2.38721
2.67177
2.74537
2.99486
2.89465
3.01084
2.95664
2.97561
2.85702
2.95668
2.62358
2.83398
2.54247
2.52378
2.24398
2.30812
1.69145
1.76062
2.66863
3.00337
2.9857
3.19097
3.00299
2.96944
2.92276
3.00075
2.86024
3.08146
2.76234
2.87393
2.79833
2.78717
2.56332
2.65888
2.16301
2.13681
1.67308
1.05682
0.731988
0.569071
0.484611
0.446367
0.404189
0.38257
0.351432
0.34718
0.322347
0.317892
0.283081
0.277174
0.253698
0.271185
0.269973
0.208112
2.49371
2.24464
1.89787
1.60904
1.40271
1.29027
1.16241
1.11183
1.0338
1.03012
0.953805
0.938461
0.844296
0.833599
0.761031
0.773648
0.721962
0.717409
2.75755
2.77639
2.5929
2.35937
2.13464
2.00012
1.81124
1.74155
1.62265
1.62954
1.51525
1.4962
1.35904
1.33935
1.23286
1.23033
1.12559
1.17931
2.6864
2.80077
2.81764
2.76067
2.63047
2.55591
2.35743
2.28991
2.13293
2.15782
2.02571
2.00645
1.85082
1.81226
1.69854
1.66251
1.53296
1.59431
2.57235
2.84289
2.94893
3.0182
2.96801
2.95353
2.76971
2.72036
2.53449
2.57213
2.44889
2.43036
2.29381
2.22387
2.14408
2.05477
1.94033
1.96212
2.39203
2.49049
2.63898
2.81544
2.86462
2.96519
2.89891
2.93549
2.76749
2.80614
2.7202
2.70325
2.63403
2.53475
2.53358
2.39794
2.30978
2.33773
2.47544
2.54793
2.60537
2.66096
2.71853
2.80297
2.84156
2.95843
2.85585
2.8619
2.82064
2.77701
2.8055
2.71712
2.80696
2.70642
2.58012
2.72884
2.65893
2.61595
2.65302
2.60412
2.72109
2.70394
2.71432
2.79313
2.78237
2.77904
2.747
2.77825
2.83531
2.79037
2.88939
2.73408
2.80383
2.70857
2.4634
2.48905
2.68397
2.79126
2.79204
2.76674
2.80676
2.83914
2.83161
2.76599
2.80058
2.76488
2.71159
2.70812
2.79242
2.70536
2.75811
2.87271
2.61947
2.58039
2.60927
2.74375
2.83176
2.83502
2.86657
2.82455
2.86368
2.74203
2.77143
2.80837
2.80218
2.88678
2.74173
2.65994
2.7249
2.72198
2.56421
2.77674
2.67836
2.732
2.80958
2.76574
2.75621
2.71651
2.76473
2.77584
2.76816
2.67368
2.57715
2.71476
2.74966
2.71056
2.75745
2.70106
2.52947
2.64335
2.69303
2.79685
2.6847
2.50082
2.52849
2.60072
2.73827
2.83144
2.82464
2.73273
2.63551
2.66951
2.78742
2.81319
2.74716
2.88965
2.32137
2.38044
2.41649
2.54059
2.61596
2.66534
2.82599
2.9289
2.9726
2.95256
2.91497
2.86578
2.85399
2.79146
2.56202
2.60934
2.65163
2.65253
2.51812
2.51388
2.53453
2.52426
2.63377
2.79295
2.89311
2.84644
2.77155
2.69174
2.72327
2.80073
2.87126
2.91194
2.82575
2.85677
2.88751
2.93443
2.58745
2.57621
2.70171
2.68718
2.73581
2.7275
2.7356
2.74906
2.74246
2.70453
2.78557
2.86543
2.85361
2.85432
2.82937
2.93315
2.93384
2.96896
2.53021
2.5607
2.55327
2.50111
2.70398
2.75497
2.77542
2.74285
2.68296
2.65158
2.68431
2.74219
2.7417
2.74319
2.64953
2.68573
2.71214
2.79966
2.68085
2.70515
2.71325
2.69091
2.70238
2.58626
2.61155
2.56288
2.52647
2.59169
2.58923
2.60198
2.66631
2.77138
2.82759
2.99306
3.06906
3.09732
2.79329
2.78988
2.79042
2.70264
2.79668
2.83879
2.84407
2.77887
2.91288
2.80473
2.77684
2.87438
2.98412
2.85508
2.94448
2.90684
2.87744
2.81836
2.40795
2.63939
2.80731
2.85911
2.89555
2.98229
2.91996
2.71299
2.98204
2.99885
2.8188
2.82638
2.90906
2.78513
2.76463
2.94884
2.98643
2.88301
2.37073
2.5016
2.58554
2.57542
2.71219
2.85214
2.88683
2.69115
2.79207
2.89635
2.79926
2.71757
2.84724
2.86134
2.60773
2.75454
3.0498
2.9624
2.64111
2.83886
2.78412
2.67319
2.8113
2.88143
2.85245
2.75128
2.68647
2.85163
3.02211
2.88179
2.76436
2.73397
2.54027
2.45685
2.63345
2.8216
2.45386
2.50168
2.5071
2.54745
2.53239
2.53251
2.60411
2.56191
2.45146
2.42091
2.53959
2.57536
2.60991
2.72484
2.85961
2.90895
2.82119
2.89793
2.37312
2.44669
2.53976
2.69371
2.73331
2.64128
2.68988
2.75992
2.75014
2.57348
2.5269
2.60252
2.73173
2.83364
2.81229
2.87618
2.92404
2.81164
2.91154
2.83002
2.86794
2.88969
2.77979
2.64875
2.701
2.7722
2.75927
2.65272
2.69873
2.68193
2.65451
2.75013
2.796
2.9267
3.01564
2.94732
2.79237
2.66241
2.62734
2.54258
2.56284
2.57983
2.588
2.661
2.72342
2.6884
2.7029
2.64365
2.60319
2.63374
2.66393
2.78556
2.78317
2.8157
2.43642
2.40922
2.35879
2.25426
2.26805
2.33813
2.37869
2.44925
2.5411
2.51612
2.54776
2.50268
2.48917
2.58951
2.60405
2.76845
2.80021
2.80465
2.70468
2.69477
2.66207
2.66969
2.74543
2.74744
2.71698
2.65783
2.5906
2.62599
2.72128
2.77578
2.80441
2.79538
2.66172
2.66391
2.60966
2.62839
2.65081
2.53025
2.72934
2.65085
2.75201
2.60266
2.70587
2.55438
2.7699
2.63975
2.67094
2.59371
2.8457
2.63523
2.84177
2.61282
2.6763
2.52852
2.42405
2.3933
2.5797
2.69764
2.84857
2.7121
2.86015
2.79865
2.94454
2.89384
2.71932
2.60391
2.83162
2.69065
2.74333
2.83895
2.65192
2.62479
2.56431
2.76414
2.75563
2.62928
2.77122
2.80699
2.77265
2.538
2.74898
2.88649
2.66712
2.5511
2.71927
2.60216
2.58471
2.75154
2.65432
2.61153
2.7421
2.77038
2.66278
2.61138
2.8695
3.00731
3.05978
2.79097
2.7878
2.9451
2.89436
2.83529
2.71268
2.86752
2.82804
2.61717
2.68972
2.61158
2.63807
2.66103
2.62532
2.5388
2.56006
2.62344
2.78677
2.88181
2.72899
2.68096
2.69311
2.6919
2.58404
2.64589
2.65841
2.59554
2.63695
2.68619
2.56359
2.51575
2.52881
2.73447
2.8227
2.69579
2.57103
2.60614
2.59542
2.51055
2.60517
2.66073
2.64272
2.71048
2.69129
2.70188
2.70716
2.66677
2.51498
2.50019
2.56194
2.61992
2.50956
2.39148
2.42704
2.42656
2.46287
2.46517
2.47284
2.4353
2.47171
2.65296
2.69566
2.86766
2.93473
2.86224
2.72742
2.626
2.55026
2.52467
2.56285
2.63014
2.66921
2.67629
2.76438
2.7354
2.77924
2.82635
2.73929
2.70022
2.59269
2.64305
2.69505
2.80205
2.24065
2.28317
2.31927
2.34889
2.32389
2.36511
2.43841
2.42546
2.5068
2.51801
2.62519
2.68144
2.67491
2.76963
2.68819
2.75476
2.76254
2.70433
2.56787
2.61691
2.7103
2.65923
2.55998
2.55543
2.59277
2.6125
2.71624
2.64646
2.64547
2.65694
2.61971
2.70505
2.68731
2.83538
2.90484
2.96655
2.86455
2.65431
2.9404
2.82459
3.01257
2.80469
2.85751
2.74551
2.75063
2.82104
2.83182
2.86588
2.94373
2.66185
2.97043
2.58704
2.86967
2.2997
2.79455
2.70906
2.78489
2.68372
2.79794
2.69164
2.8242
2.89018
2.87932
2.8781
2.92467
3.00813
3.00803
2.73634
2.78214
2.8251
2.72118
2.61385
2.60548
2.83278
2.66551
2.50763
2.65993
2.59495
2.52038
2.58416
2.83032
2.86712
2.80788
2.93361
3.10764
2.89573
2.75772
2.80631
2.74902
2.65937
2.56054
2.77719
2.79655
2.68326
2.7413
2.81225
2.7825
2.65607
2.89292
3.08184
2.95136
2.77959
2.78515
2.801
2.78802
2.68493
2.71906
2.73928
2.69854
2.68933
2.71051
2.68212
2.70621
2.64733
2.69706
2.82166
2.88219
2.86834
2.80171
2.75042
2.65702
2.70098
2.76456
2.62133
2.58632
2.66842
2.45364
2.4509
2.54299
2.6852
2.72378
2.60728
2.65514
2.71231
2.68457
2.69679
2.73677
2.78966
2.76029
2.747
2.74641
2.80045
2.8564
2.86054
2.50908
2.60921
2.71435
2.82661
2.83423
2.71749
2.74223
2.63188
2.54905
2.60205
2.61491
2.52602
2.51311
2.68708
2.78116
2.96924
2.99407
2.89901
2.47656
2.55703
2.49756
2.41375
2.45429
2.52768
2.68616
2.72971
2.73256
2.69896
2.69787
2.68194
2.69647
2.72886
2.65822
2.73338
2.71691
2.78483
2.53875
2.51335
2.45727
2.43417
2.4484
2.49674
2.52109
2.51989
2.59407
2.60676
2.67243
2.63145
2.58807
2.61499
2.53355
2.59835
2.64901
2.71675
2.67296
2.5592
2.53616
2.51228
2.45388
2.47794
2.48421
2.44372
2.52099
2.5184
2.65647
2.76604
2.80872
2.90112
2.90232
2.9439
2.90957
2.97836
2.58063
2.40911
2.57259
2.57951
2.71194
2.72087
2.79361
2.88439
3.01502
2.99008
3.05082
2.93683
2.96973
2.81942
2.81857
2.7607
2.7382
2.57667
2.70928
2.69183
2.71478
2.74438
2.80262
2.8422
2.80338
2.84843
2.92394
2.88114
2.79449
2.69513
2.73477
2.75376
2.76025
2.64648
2.90394
2.72519
2.77494
2.80708
2.732
2.52308
2.55434
2.71766
2.5996
2.47559
2.65657
2.83537
2.66437
2.6118
2.6881
2.83596
2.80259
2.76332
2.92788
2.94059
2.4632
2.69116
2.81781
2.69319
2.59733
2.75462
2.8558
2.69207
2.66346
2.98557
3.16863
3.02338
2.7292
2.7887
2.78503
2.81479
2.72076
2.64624
2.59559
2.65833
2.65438
2.68014
2.65961
2.56122
2.72006
2.8319
2.65378
2.6314
2.83189
2.92446
2.76627
2.70452
2.74965
2.8388
2.76201
2.85482
2.78443
2.79378
2.68988
2.64656
2.66935
2.57281
2.65803
2.79686
2.78905
2.64246
2.64307
2.80805
2.86894
2.88751
2.79449
2.84687
2.8833
2.9374
2.59376
2.65386
2.59425
2.63134
2.67037
2.62991
2.67666
2.67878
2.67549
2.62395
2.6854
2.7785
2.77237
2.76298
2.6266
2.62693
2.5694
2.53841
2.70225
2.83549
2.70039
2.72011
2.7668
2.77504
2.78605
2.79923
2.83281
2.77949
2.72141
2.64741
2.67149
2.69686
2.6496
2.77548
2.8232
2.88394
2.79704
2.76976
2.73662
2.83253
2.92259
2.93215
2.91039
2.87867
2.7995
2.72209
2.72463
2.69351
2.70921
2.67102
2.64239
2.77152
2.73299
2.80057
2.45003
2.52191
2.62298
2.70966
2.72387
2.66435
2.62704
2.55938
2.48908
2.52955
2.65522
2.76702
2.82768
2.79378
2.74296
2.74898
2.70496
2.74373
2.64731
2.76417
2.69998
2.68314
2.75299
2.77667
2.92968
2.93829
2.93213
2.84293
2.90355
2.86924
2.96582
2.98405
2.98986
2.93961
2.88869
2.70594
2.50248
2.5628
2.58209
2.64073
2.68585
2.68934
2.73403
2.70844
2.66183
2.69036
2.71834
2.61595
2.64435
2.60338
2.73926
2.7881
2.90614
2.94604
2.46073
2.38886
2.51127
2.66352
2.74288
2.78436
2.7481
2.77275
2.72973
2.79828
2.79074
2.77499
2.7925
2.83821
2.86331
2.83843
2.85843
2.79842
2.64141
2.6943
2.75981
2.89196
2.97826
2.97943
2.8806
2.7938
2.60491
2.52278
2.53542
2.63989
2.69204
2.70769
2.76462
2.84196
2.88462
2.95979
2.46316
2.36347
2.32677
2.46518
2.65963
2.77803
2.78976
2.86589
2.87422
2.81405
2.77567
2.76699
2.73042
2.7036
2.68446
2.6724
2.62284
2.74777
2.4069
2.43867
2.46349
2.585
2.73863
2.7369
2.67339
2.67021
2.63627
2.55038
2.4967
2.51333
2.61092
2.76929
2.76677
2.7349
2.72326
2.75343
2.31209
2.4513
2.49573
2.51847
2.52682
2.57769
2.70153
2.78277
2.84717
2.85772
2.85167
2.85451
2.85783
2.77879
2.62313
2.661
2.76649
2.8835
2.62927
2.60313
2.56487
2.58783
2.64926
2.66416
2.60734
2.56445
2.62111
2.673
2.78009
2.82728
2.85143
2.81882
2.79379
2.82503
2.75112
2.80722
2.44067
2.4604
2.50556
2.60345
2.6875
2.77197
2.7639
2.70651
2.65557
2.58747
2.59213
2.5441
2.59599
2.63197
2.73192
2.77844
2.7166
2.77315
2.37271
2.46906
2.51477
2.61804
2.64625
2.67879
2.68555
2.69932
2.76762
2.71563
2.71904
2.67098
2.67201
2.67652
2.65813
2.72162
2.7634
2.74569
2.76554
2.90939
2.90506
2.79399
2.79165
2.71535
2.79183
2.91897
2.9848
2.9918
3.03432
2.98562
2.95983
2.95167
2.94225
2.78998
2.7741
2.68403
2.60432
2.61934
2.67948