/*--------------------------------*- C++ -*----------------------------------*\
| =========                 |                                                 |
| \\      /  F ield         | OpenFOAM: The Open Source CFD Toolbox           |
|  \\    /   O peration     | Version:  3.0.1                                 |
|   \\  /    A nd           | Web:      www.OpenFOAM.org                      |
|    \\/     M anipulation  |                                                 |
\*---------------------------------------------------------------------------*/
FoamFile
{
    version     2.0;
    format      ascii;
    class       volScalarField;
    location    "0.1";
    object      Ux_mode_2;
}
// * * * * * * * * * * * * * * * * * * * * * * * * * * * * * * * * * * * * * //

dimensions      [0 0 0 0 0 0 0];

internalField   nonuniform List<scalar> 
244500
(
0.175807
0.150868
0.0963598
0.0681763
0.0583402
0.0552771
0.0574058
0.0646865
0.068832
0.0760243
0.0818208
0.09098
0.105441
0.122232
0.163099
0.204224
0.335085
0.332781
0.295699
0.221944
0.202729
0.179345
0.166938
0.155816
0.159092
0.175501
0.17798
0.192086
0.19761
0.212011
0.241261
0.265165
0.337822
0.390866
0.58401
0.674876
0.476274
0.38147
0.311535
0.271397
0.261242
0.241086
0.241284
0.265074
0.265366
0.28292
0.284192
0.294498
0.332848
0.356639
0.439291
0.496663
0.683172
0.813748
0.405003
0.339106
0.325051
0.345401
0.356734
0.320578
0.307088
0.334047
0.336411
0.354043
0.351468
0.350187
0.391928
0.415026
0.497513
0.556194
0.728568
0.847694
-0.0127003
0.151229
0.336862
0.421181
0.418463
0.36116
0.341387
0.373216
0.38625
0.40074
0.396316
0.380885
0.417314
0.440749
0.519767
0.570165
0.744586
0.81927
0.345668
0.345326
0.446035
0.47096
0.449502
0.384164
0.359796
0.376841
0.401519
0.412909
0.408456
0.38679
0.408281
0.43266
0.504111
0.535957
0.722359
0.755738
0.16209
0.236076
0.375912
0.393833
0.370786
0.290723
0.275551
0.296309
0.366
0.411282
0.40594
0.393014
0.388325
0.419636
0.467073
0.464254
0.657978
0.689216
0.380696
0.163535
0.0932734
0.0618669
0.0533292
0.0474104
0.0509509
0.0568218
0.0660263
0.0774207
0.0940198
0.113063
0.138727
0.163104
0.203968
0.255206
0.351015
0.36296
0.188666
0.234236
0.209714
0.161968
0.146467
0.122703
0.126644
0.135198
0.150767
0.181133
0.213944
0.252634
0.299771
0.333132
0.415244
0.490315
0.638454
0.773481
0.239164
0.262349
0.269532
0.227563
0.219923
0.183931
0.186363
0.194741
0.205958
0.246951
0.286022
0.33769
0.400082
0.430442
0.53264
0.619807
0.750856
0.951126
0.242817
0.199893
0.281964
0.271095
0.276286
0.23344
0.236554
0.247869
0.246084
0.287211
0.322893
0.380613
0.458779
0.482293
0.591673
0.696538
0.796334
0.993085
0.420028
0.29952
0.324929
0.274247
0.303416
0.291862
0.309908
0.321913
0.29292
0.312972
0.330701
0.383086
0.476645
0.4948
0.597165
0.723431
0.809431
0.971107
0.086646
0.143033
0.33391
0.325533
0.335985
0.313043
0.327304
0.343367
0.300123
0.29843
0.301487
0.34553
0.45154
0.474816
0.550269
0.686895
0.77519
0.918023
0.245185
0.280833
0.422182
0.358863
0.323413
0.305516
0.294603
0.282553
0.223418
0.213832
0.240118
0.301302
0.410784
0.45265
0.476017
0.586304
0.674335
0.798664
0.311087
0.173182
0.115838
0.0821296
0.0674286
0.0581106
0.0670972
0.0654933
0.0767864
0.0757396
0.088994
0.0996686
0.123784
0.145209
0.169708
0.233926
0.244631
0.382458
0.348827
0.306212
0.281039
0.220269
0.198167
0.179084
0.192795
0.167773
0.185072
0.173969
0.204132
0.224776
0.261852
0.300841
0.347464
0.46783
0.482613
0.772003
0.486551
0.400657
0.410046
0.328858
0.305989
0.285479
0.309701
0.260169
0.272581
0.244726
0.279119
0.308662
0.347021
0.390589
0.448747
0.58199
0.607075
0.926063
0.22501
0.375335
0.461768
0.368968
0.363621
0.357607
0.410831
0.349127
0.352896
0.30375
0.326686
0.36404
0.404264
0.438736
0.513028
0.629777
0.679699
0.958663
0.344246
0.349339
0.373915
0.276806
0.31819
0.340263
0.450487
0.407853
0.416109
0.355585
0.354737
0.39119
0.441452
0.455703
0.546189
0.634892
0.711232
0.945932
0.433979
0.27419
0.380956
0.362265
0.421173
0.392089
0.498156
0.455921
0.459825
0.405706
0.380799
0.399732
0.465201
0.459696
0.545657
0.61113
0.68759
0.907726
0.501028
0.493645
0.533407
0.392985
0.363247
0.279982
0.403933
0.441938
0.493419
0.496991
0.468151
0.436076
0.493484
0.483352
0.519252
0.570279
0.610188
0.792101
0.18054
0.0643549
0.0632714
0.0595642
0.0630834
0.0589726
0.0737913
0.0776857
0.0872134
0.0891391
0.102697
0.121285
0.139972
0.173383
0.204786
0.26989
0.331908
0.437673
0.238377
0.146272
0.172706
0.154408
0.167387
0.159377
0.196473
0.189586
0.205813
0.21408
0.241538
0.278485
0.300104
0.363637
0.402482
0.521929
0.621817
0.831448
0.30049
0.262128
0.28789
0.235869
0.247885
0.23773
0.29304
0.276214
0.289401
0.302909
0.33681
0.391092
0.407911
0.488352
0.514602
0.655285
0.762015
1.00401
0.270627
0.339534
0.379931
0.292192
0.302071
0.290229
0.362357
0.342872
0.349629
0.361522
0.398499
0.469881
0.484659
0.579826
0.588734
0.729828
0.840589
1.06547
0.16794
0.231495
0.235478
0.162528
0.235432
0.259403
0.366349
0.367021
0.381765
0.386081
0.422838
0.510158
0.521718
0.641566
0.63436
0.759267
0.894549
1.05022
0.21914
0.213159
0.282953
0.238936
0.288092
0.267621
0.35547
0.35361
0.380505
0.365738
0.395766
0.503561
0.500601
0.653741
0.640471
0.728423
0.924557
0.976358
0.243918
0.254722
0.313383
0.260809
0.318749
0.299709
0.366614
0.328735
0.365725
0.330031
0.331993
0.456822
0.414544
0.579888
0.574423
0.604841
0.883689
0.853737
0.0887658
0.120064
0.103616
0.0795389
0.0640319
0.0506923
0.0636721
0.0616555
0.0872463
0.0790344
0.112764
0.097154
0.147057
0.133476
0.210203
0.209536
0.366703
0.264131
0.159358
0.247157
0.250109
0.202057
0.171095
0.135649
0.172777
0.163402
0.22228
0.182547
0.265933
0.202034
0.331613
0.260294
0.44313
0.391259
0.693749
0.617821
0.311686
0.294355
0.314431
0.274355
0.257453
0.201176
0.258752
0.240425
0.327995
0.254907
0.377763
0.265031
0.455607
0.337962
0.574603
0.504343
0.811964
0.832182
0.413818
0.402968
0.449359
0.378386
0.361562
0.266123
0.332927
0.294543
0.411568
0.306912
0.460078
0.305938
0.532022
0.402188
0.633633
0.60598
0.829675
0.956976
0.312281
0.207544
0.336612
0.359134
0.44463
0.336977
0.404412
0.329708
0.464955
0.337177
0.506219
0.330819
0.556747
0.458789
0.637496
0.689141
0.811627
0.997792
0.499499
0.27171
0.33796
0.274504
0.391741
0.288908
0.388345
0.31234
0.467987
0.343491
0.508076
0.338289
0.530897
0.496766
0.604577
0.730897
0.773357
0.976616
0.530153
0.408667
0.519159
0.430655
0.540099
0.439328
0.511471
0.422643
0.522637
0.385541
0.486547
0.33085
0.476942
0.513345
0.562338
0.726804
0.701445
0.898619
0.444902
0.205681
0.118163
0.0820971
0.069088
0.0612279
0.0693651
0.0716411
0.0822294
0.0777075
0.0932819
0.0977194
0.123804
0.134967
0.170882
0.190664
0.260036
0.201407
0.419572
0.335815
0.272424
0.211514
0.17807
0.163693
0.190759
0.183315
0.206384
0.184962
0.221197
0.220761
0.281296
0.294212
0.367742
0.397422
0.51447
0.519371
0.214589
0.319195
0.342584
0.292686
0.251195
0.235541
0.288342
0.273705
0.310404
0.271426
0.31689
0.304334
0.384418
0.399513
0.484133
0.537542
0.636503
0.715168
0.272976
0.366906
0.371962
0.306802
0.269357
0.264473
0.355909
0.343282
0.398284
0.345279
0.393275
0.365338
0.448617
0.472317
0.544004
0.63921
0.696875
0.820563
0.191679
0.313803
0.438179
0.404439
0.356247
0.311297
0.404539
0.385521
0.454013
0.395496
0.444849
0.406701
0.475506
0.513511
0.555273
0.691678
0.723655
0.846225
0.447415
0.444343
0.376171
0.299476
0.307039
0.264744
0.359877
0.349722
0.434023
0.389646
0.448932
0.415591
0.464869
0.512378
0.524163
0.673789
0.71409
0.800394
0.293086
0.488228
0.531277
0.418139
0.330776
0.184201
0.196394
0.210458
0.319936
0.319346
0.398184
0.382999
0.419891
0.452087
0.44593
0.560864
0.635312
0.701816
0.345465
0.162084
0.0887898
0.0693951
0.0652497
0.0614661
0.063943
0.0694728
0.0797841
0.081174
0.0880625
0.0859852
0.0969939
0.0974719
0.120872
0.143572
0.229707
0.217381
0.456393
0.259447
0.216861
0.19083
0.178518
0.169342
0.175359
0.188156
0.213706
0.211169
0.222262
0.201544
0.220584
0.208343
0.262481
0.29363
0.429368
0.454775
0.25916
0.318016
0.34048
0.29838
0.268724
0.255052
0.262661
0.276251
0.316576
0.314772
0.334388
0.294804
0.315607
0.283663
0.350721
0.389199
0.52604
0.590976
0.122506
0.338676
0.412971
0.36049
0.319003
0.310126
0.327476
0.334763
0.388844
0.390352
0.426126
0.373198
0.396094
0.342936
0.403751
0.456375
0.56612
0.665258
0.417312
0.431692
0.435147
0.336324
0.299863
0.318387
0.360761
0.357638
0.418969
0.424958
0.482511
0.425939
0.456149
0.390605
0.426722
0.498997
0.569877
0.676197
0.167398
0.308464
0.379493
0.332645
0.347378
0.380577
0.406017
0.350716
0.387579
0.392866
0.474717
0.426994
0.472773
0.415612
0.41903
0.509202
0.550527
0.628118
0.387302
0.363462
0.281696
0.209446
0.249873
0.290677
0.308214
0.252322
0.311895
0.360945
0.469358
0.431009
0.478737
0.440452
0.405842
0.486341
0.506234
0.558618
0.28178
0.13584
0.0822687
0.0669913
0.0685077
0.0651727
0.0715462
0.0672063
0.0832074
0.073202
0.0895194
0.0799329
0.112175
0.100815
0.144166
0.147317
0.222145
0.16983
0.337158
0.293366
0.239001
0.197244
0.195027
0.178245
0.193389
0.177964
0.214087
0.175633
0.224218
0.186286
0.261697
0.219885
0.332073
0.304894
0.4645
0.368631
0.202937
0.200319
0.264134
0.262385
0.283852
0.26589
0.293926
0.266516
0.323238
0.25595
0.33336
0.26751
0.371966
0.299052
0.457362
0.405869
0.605958
0.518083
0.251924
0.294756
0.32451
0.289212
0.328301
0.319856
0.374663
0.32966
0.414857
0.319344
0.422206
0.337826
0.458752
0.360334
0.53619
0.483477
0.6681
0.622525
0.224676
0.100155
0.151893
0.173001
0.290265
0.318295
0.423765
0.355495
0.469623
0.358593
0.476573
0.394347
0.524397
0.414253
0.573069
0.546706
0.676913
0.664838
0.342777
0.311365
0.463934
0.461096
0.512429
0.437256
0.4995
0.337886
0.441926
0.342999
0.468732
0.415517
0.560172
0.459742
0.569278
0.587836
0.659464
0.647129
0.220311
0.355859
0.498601
0.432553
0.472992
0.383502
0.483297
0.290279
0.358548
0.310345
0.409911
0.364514
0.513789
0.452193
0.495469
0.561467
0.607292
0.602715
0.195792
0.136374
0.0818148
0.044365
0.0503154
0.0376343
0.0553162
0.0361627
0.0667536
0.0388776
0.0686502
0.0333309
0.056422
-0.00272097
-0.0205374
-0.13064
-0.281679
-0.449149
0.231924
0.259381
0.210966
0.126318
0.144323
0.0986286
0.152489
0.0942172
0.173564
0.0958537
0.189461
0.102588
0.190146
0.0734119
0.0983481
-0.0793617
-0.258031
-0.648017
0.0898927
0.205266
0.241053
0.157857
0.212195
0.137948
0.23235
0.133866
0.256833
0.135168
0.285214
0.15788
0.302756
0.154214
0.229676
0.0395525
-0.0771834
-0.533469
0.419663
0.356223
0.322822
0.163202
0.253326
0.153295
0.29845
0.154503
0.321775
0.161121
0.358801
0.201932
0.390342
0.223558
0.339629
0.156251
0.107241
-0.33481
0.338959
0.274969
0.323259
0.113353
0.272361
0.151788
0.35199
0.15582
0.36152
0.175993
0.407158
0.236078
0.453785
0.275941
0.414712
0.251683
0.249772
-0.163238
0.268904
0.225071
0.345073
0.0329516
0.247271
0.116485
0.3909
0.159964
0.398143
0.211748
0.447112
0.272477
0.496313
0.319743
0.446445
0.327
0.352317
-0.0318761
0.315634
0.216083
0.474945
0.163903
0.356599
0.138856
0.396131
0.128751
0.360217
0.225812
0.408689
0.271544
0.472466
0.338372
0.424544
0.372319
0.41074
0.101843
0.220013
0.179699
0.122241
0.0908969
0.0832724
0.0744158
0.0733265
0.0681139
0.0754028
0.0686196
0.087982
0.0874755
0.117509
0.117724
0.170807
0.178024
0.277202
0.230076
0.329971
0.319492
0.288071
0.239525
0.221927
0.187788
0.181428
0.166028
0.181743
0.163768
0.210905
0.193465
0.266557
0.256633
0.366615
0.358329
0.529941
0.46251
0.418145
0.383496
0.409369
0.364082
0.344087
0.282713
0.268069
0.237966
0.260483
0.231808
0.301814
0.265259
0.364252
0.345346
0.483547
0.463401
0.663682
0.609739
0.2318
0.353496
0.459309
0.426449
0.425101
0.348475
0.334423
0.286338
0.315139
0.276708
0.367207
0.31982
0.426748
0.404315
0.552029
0.522426
0.715703
0.716125
-0.0749565
0.122904
0.340364
0.361402
0.423009
0.358983
0.370962
0.309968
0.343681
0.295627
0.398649
0.359149
0.459878
0.437373
0.585565
0.544741
0.706684
0.768056
0.242034
0.0690871
0.209937
0.226749
0.401075
0.41398
0.486502
0.405205
0.419193
0.339545
0.416736
0.392274
0.469686
0.446883
0.589596
0.534284
0.648527
0.777514
0.676232
0.555568
0.528839
0.280287
0.318746
0.27294
0.402829
0.3989
0.466856
0.403958
0.415089
0.40896
0.438787
0.430607
0.566807
0.507382
0.534808
0.754892
0.175828
0.150739
0.0972172
0.0690616
0.058815
0.058096
0.0593417
0.0675681
0.0740799
0.0826936
0.0896134
0.101435
0.121512
0.138568
0.188454
0.23277
0.378918
0.374487
0.295629
0.221595
0.204027
0.180323
0.167676
0.1612
0.160634
0.181521
0.187539
0.202404
0.211971
0.230636
0.2695
0.291244
0.387177
0.438392
0.66369
0.763021
0.476009
0.381067
0.312884
0.272354
0.261335
0.248086
0.241512
0.271939
0.276654
0.293536
0.300592
0.315404
0.366226
0.38287
0.499123
0.549027
0.770618
0.927215
0.404346
0.338556
0.326288
0.346891
0.355303
0.328472
0.306456
0.339793
0.347872
0.364118
0.367203
0.369995
0.427612
0.437627
0.559397
0.607988
0.809043
0.974674
-0.0145166
0.151263
0.338297
0.42487
0.414842
0.369063
0.341408
0.376751
0.39539
0.410711
0.410018
0.396349
0.453043
0.460265
0.577584
0.617296
0.808067
0.955607
0.343739
0.345616
0.446521
0.478747
0.442918
0.389077
0.36331
0.379335
0.404471
0.423181
0.420803
0.395291
0.438566
0.451666
0.55647
0.574129
0.756583
0.88453
0.157597
0.234032
0.376182
0.412126
0.36454
0.286942
0.281803
0.30176
0.357554
0.420416
0.422812
0.39688
0.402947
0.437924
0.520134
0.493896
0.654332
0.758061
0.380579
0.163539
0.0947066
0.0619702
0.0545734
0.0499481
0.0525156
0.0601779
0.0719245
0.0826543
0.102957
0.124426
0.153849
0.182181
0.233058
0.287428
0.407529
0.425468
0.187356
0.235216
0.21231
0.160825
0.150654
0.125507
0.127929
0.144085
0.158142
0.190209
0.232818
0.267609
0.329588
0.365561
0.463612
0.547052
0.734316
0.886944
0.23547
0.264227
0.273404
0.224424
0.226882
0.186287
0.185152
0.208135
0.211579
0.255954
0.311996
0.348319
0.437412
0.467237
0.583444
0.684563
0.857397
1.07341
0.235863
0.201172
0.288627
0.265896
0.285328
0.236771
0.230926
0.264803
0.249602
0.291908
0.355835
0.383497
0.498178
0.522312
0.635907
0.759409
0.905406
1.10656
0.410012
0.298559
0.337972
0.268154
0.312859
0.299178
0.299613
0.339311
0.296628
0.308981
0.368646
0.379257
0.511362
0.539793
0.63198
0.774426
0.916923
1.07982
0.0759878
0.135147
0.35393
0.323042
0.341944
0.326738
0.314338
0.353383
0.308176
0.284914
0.336522
0.340214
0.474581
0.523368
0.580275
0.717335
0.865804
1.03548
0.242769
0.252677
0.44733
0.37137
0.31902
0.325818
0.291191
0.277459
0.233407
0.19807
0.258824
0.299834
0.420565
0.497564
0.512082
0.5996
0.717415
0.917119
0.310848
0.173071
0.117531
0.0820297
0.0685719
0.0597221
0.0697545
0.0674255
0.0816542
0.0810601
0.0963401
0.109497
0.138493
0.161723
0.196152
0.264749
0.307334
0.419731
0.347216
0.306749
0.283822
0.218983
0.201895
0.180252
0.197296
0.171016
0.194018
0.181742
0.218171
0.241442
0.286118
0.328845
0.392833
0.514995
0.586442
0.855001
0.482488
0.401782
0.413809
0.326103
0.312001
0.285307
0.314914
0.263169
0.283273
0.251737
0.295845
0.327569
0.372271
0.423373
0.49798
0.631609
0.717428
1.02199
0.218069
0.375722
0.46727
0.365049
0.371503
0.356134
0.416858
0.350288
0.364807
0.308409
0.343116
0.384606
0.425077
0.474316
0.559643
0.674808
0.786283
1.04883
0.335625
0.347194
0.383003
0.273004
0.327134
0.338204
0.458695
0.405768
0.428364
0.358092
0.366858
0.414402
0.455117
0.491662
0.59016
0.667903
0.812167
1.02537
0.425068
0.267265
0.394811
0.363112
0.430177
0.389717
0.510279
0.449476
0.469955
0.407386
0.385118
0.423767
0.473256
0.491304
0.590318
0.626736
0.775584
0.981597
0.496205
0.477779
0.548113
0.402909
0.370964
0.274551
0.422375
0.435245
0.498319
0.498504
0.465978
0.453402
0.499247
0.507638
0.567712
0.570898
0.667488
0.862514
0.180598
0.063692
0.064481
0.0599135
0.0634729
0.0612829
0.0743533
0.0803653
0.0901051
0.0936137
0.107622
0.12872
0.150129
0.185152
0.222003
0.290809
0.365688
0.452965
0.238587
0.144533
0.175722
0.153713
0.16861
0.164113
0.195187
0.196599
0.209234
0.221639
0.250626
0.29089
0.317672
0.382795
0.434952
0.555003
0.680867
0.879724
0.300933
0.258875
0.292418
0.234265
0.248862
0.244696
0.289053
0.286125
0.292144
0.310963
0.347273
0.404754
0.427606
0.508297
0.553382
0.69031
0.824202
1.0723
0.271774
0.333492
0.385584
0.290678
0.301577
0.299355
0.35592
0.354036
0.351694
0.369026
0.408146
0.483633
0.504089
0.597161
0.629657
0.763261
0.8932
1.14563
0.170154
0.222132
0.241671
0.16291
0.232451
0.270185
0.359144
0.377566
0.382914
0.393572
0.429275
0.523366
0.540243
0.653797
0.676157
0.789675
0.930146
1.13587
0.224181
0.19976
0.287007
0.244325
0.282597
0.278696
0.351038
0.361845
0.379746
0.374822
0.396808
0.515239
0.517977
0.658559
0.683791
0.75506
0.938008
1.05941
0.25399
0.239161
0.310137
0.273582
0.313465
0.305603
0.368194
0.335226
0.36329
0.343041
0.326576
0.468301
0.429022
0.574192
0.622917
0.628798
0.872122
0.919233
0.0887046
0.119375
0.104866
0.0794524
0.0644063
0.0518259
0.0643356
0.0633519
0.0887105
0.0820221
0.115463
0.101546
0.151349
0.139506
0.215551
0.215773
0.370511
0.258759
0.159324
0.245373
0.253028
0.200849
0.172419
0.137869
0.172839
0.167405
0.223825
0.188348
0.270247
0.210241
0.339194
0.271801
0.454334
0.404213
0.706577
0.619539
0.31179
0.291128
0.318703
0.272416
0.258907
0.204552
0.257444
0.246142
0.328512
0.261892
0.382159
0.274481
0.464301
0.351283
0.589172
0.519435
0.830528
0.841741
0.414335
0.397583
0.454285
0.376711
0.362175
0.27098
0.330005
0.301652
0.410769
0.314041
0.46403
0.314903
0.540975
0.414799
0.650469
0.620554
0.848807
0.975544
0.314186
0.19929
0.341134
0.359354
0.443342
0.343489
0.400413
0.337567
0.463513
0.343286
0.509921
0.338093
0.565447
0.468666
0.656026
0.702715
0.824915
1.02568
0.503185
0.260558
0.340203
0.279575
0.387687
0.296854
0.384691
0.319443
0.467465
0.347295
0.511321
0.343928
0.538728
0.501553
0.624378
0.744871
0.775244
1.00671
0.535396
0.401545
0.514241
0.440089
0.533237
0.446707
0.511134
0.426926
0.52506
0.386992
0.487335
0.337733
0.48441
0.509105
0.5833
0.742734
0.694021
0.913468
0.445158
0.204686
0.119152
0.0822815
0.0690289
0.0615918
0.0696066
0.0719148
0.0823332
0.0785975
0.0934626
0.0994126
0.124892
0.137463
0.174074
0.193797
0.266344
0.204588
0.420663
0.332813
0.275266
0.21024
0.178913
0.164542
0.190136
0.184716
0.205367
0.187019
0.220625
0.224607
0.281785
0.299311
0.372362
0.400738
0.527541
0.525056
0.217068
0.31401
0.347095
0.289771
0.252796
0.236908
0.286514
0.276629
0.307825
0.274631
0.314887
0.310103
0.383148
0.406352
0.489138
0.538216
0.654407
0.717796
0.277196
0.358774
0.377537
0.302452
0.271343
0.266449
0.352884
0.348002
0.39399
0.349943
0.38909
0.37328
0.444821
0.480309
0.55057
0.633852
0.720797
0.81715
0.197838
0.301839
0.444053
0.399282
0.357975
0.313629
0.400947
0.392282
0.448187
0.402111
0.437869
0.416762
0.469271
0.520778
0.566787
0.677919
0.751393
0.840281
0.455684
0.429275
0.381123
0.29497
0.30858
0.267254
0.356732
0.358121
0.427245
0.398433
0.439441
0.426882
0.457212
0.516072
0.54208
0.657304
0.735936
0.79688
0.306
0.469167
0.533075
0.416539
0.332219
0.185484
0.195861
0.219647
0.314321
0.328731
0.387355
0.394678
0.411656
0.450854
0.463946
0.557958
0.643258
0.693994
0.345423
0.162311
0.0884183
0.0691439
0.0651182
0.0605599
0.064147
0.0682167
0.0793846
0.0797437
0.0873316
0.083333
0.0950284
0.0944297
0.117806
0.139778
0.22685
0.218969
0.456281
0.260147
0.216004
0.190781
0.178089
0.167107
0.177133
0.184394
0.214288
0.208663
0.220723
0.197107
0.217198
0.201716
0.256549
0.284324
0.421813
0.448177
0.2589
0.319238
0.339247
0.298709
0.268543
0.251098
0.266568
0.270258
0.318213
0.312111
0.332353
0.290339
0.311796
0.275649
0.343992
0.376498
0.516897
0.578221
0.121923
0.34094
0.411612
0.361054
0.320072
0.303695
0.333854
0.326807
0.390955
0.388229
0.423517
0.369916
0.391938
0.335068
0.397857
0.44141
0.557751
0.649533
0.416109
0.435562
0.434313
0.336579
0.303789
0.308935
0.369069
0.348647
0.420368
0.423717
0.478853
0.425043
0.451539
0.383748
0.423376
0.482277
0.564245
0.66076
0.165911
0.313389
0.379321
0.329722
0.356315
0.367413
0.414423
0.342702
0.386808
0.392287
0.469631
0.429037
0.468319
0.410008
0.419773
0.491644
0.54775
0.620283
0.383541
0.369445
0.285402
0.199993
0.264514
0.276844
0.311088
0.247153
0.308525
0.359465
0.463502
0.435162
0.474961
0.43744
0.410502
0.471188
0.503172
0.563649
0.281953
0.135369
0.0822684
0.0671005
0.0675288
0.0648122
0.0700563
0.0661556
0.0801538
0.0703189
0.0859015
0.0743809
0.10546
0.0937644
0.131641
0.135852
0.201259
0.168195
0.338021
0.291797
0.23952
0.197365
0.192959
0.17897
0.189796
0.176868
0.208308
0.171112
0.217284
0.175807
0.25092
0.205636
0.308635
0.286142
0.422466
0.345581
0.204797
0.197592
0.264858
0.262868
0.280592
0.268334
0.289099
0.266163
0.316453
0.251282
0.325573
0.254425
0.36145
0.28088
0.431165
0.384527
0.558602
0.481264
0.255129
0.291376
0.324504
0.290468
0.323579
0.323667
0.369408
0.330456
0.407856
0.315339
0.415563
0.32251
0.451579
0.339218
0.51136
0.462399
0.621664
0.579682
0.228726
0.0964617
0.149239
0.175521
0.284485
0.32229
0.418901
0.357905
0.462947
0.355308
0.473325
0.376643
0.522185
0.391924
0.550102
0.529299
0.634117
0.618328
0.34604
0.310515
0.458037
0.464401
0.5069
0.437735
0.495244
0.342667
0.436109
0.339315
0.471339
0.396874
0.561578
0.440319
0.548416
0.57367
0.624217
0.602476
0.221329
0.358869
0.487601
0.433285
0.475797
0.381969
0.477727
0.295769
0.354367
0.303258
0.41803
0.349873
0.513906
0.438821
0.482476
0.546212
0.577507
0.573168
0.195344
0.136902
0.0810667
0.0438848
0.0494326
0.0362293
0.0537379
0.0332753
0.0629516
0.0343387
0.063294
0.024863
0.0443937
-0.0168611
-0.0449361
-0.159328
-0.337559
-0.484003
0.230358
0.26165
0.208496
0.126976
0.142303
0.0958867
0.150511
0.0881097
0.168464
0.0884144
0.179718
0.0885643
0.170434
0.0500136
0.0563145
-0.121284
-0.350457
-0.731121
0.0866199
0.209718
0.236941
0.160071
0.209709
0.134673
0.231129
0.125681
0.252175
0.12728
0.274128
0.14261
0.28213
0.127947
0.183926
-0.00405273
-0.171705
-0.636855
0.41416
0.363373
0.317463
0.16698
0.25078
0.15029
0.298454
0.145423
0.317381
0.153849
0.348485
0.186022
0.37347
0.195681
0.29724
0.11448
0.0237874
-0.440911
0.330925
0.284846
0.317363
0.119536
0.269969
0.150213
0.35308
0.147484
0.3567
0.168761
0.400416
0.21772
0.444095
0.247273
0.377797
0.21537
0.178485
-0.259273
0.258312
0.239297
0.338788
0.0391206
0.242658
0.116576
0.392463
0.155757
0.392466
0.20087
0.448176
0.249964
0.493486
0.293633
0.41454
0.299312
0.291985
-0.110966
0.299352
0.232879
0.47244
0.171555
0.349581
0.142146
0.390909
0.129685
0.355601
0.204825
0.420139
0.249006
0.471456
0.316375
0.401101
0.351283
0.362037
0.0448245
0.219585
0.180346
0.121019
0.090301
0.0828652
0.0718142
0.0723493
0.0635737
0.0714153
0.0625778
0.0810777
0.077593
0.103202
0.10299
0.148953
0.151418
0.233614
0.216021
0.328018
0.32266
0.284287
0.240318
0.221436
0.181547
0.182724
0.155062
0.177036
0.153078
0.198444
0.176753
0.240756
0.233409
0.322506
0.315107
0.455526
0.404882
0.4135
0.389813
0.403315
0.366088
0.345115
0.27306
0.273273
0.222702
0.256753
0.219755
0.2876
0.247303
0.333378
0.323352
0.428659
0.415493
0.588024
0.523957
0.223422
0.364165
0.451847
0.428483
0.42927
0.335987
0.343933
0.268857
0.312553
0.264495
0.353252
0.303809
0.392292
0.389206
0.493768
0.471708
0.655392
0.617217
-0.0880287
0.138524
0.333392
0.362056
0.431179
0.345282
0.383842
0.292595
0.342348
0.283361
0.38532
0.348488
0.420925
0.430733
0.531941
0.490478
0.665768
0.670702
0.225101
0.0880549
0.206149
0.224433
0.412691
0.401764
0.501122
0.390242
0.418306
0.327885
0.401872
0.389976
0.428719
0.442558
0.548085
0.483057
0.622938
0.680051
0.65203
0.579046
0.534481
0.27303
0.327142
0.266118
0.420359
0.390433
0.460358
0.396709
0.39497
0.4089
0.40874
0.417152
0.53275
0.477124
0.530429
0.639179
0.0244458
0.163615
0.447995
0.479051
0.389434
0.346378
0.331718
0.311395
0.330235
0.420382
0.40523
0.439111
0.419768
0.49884
0.532229
0.426864
0.615659
0.711554
0.326898
0.25876
0.223308
0.295032
0.27515
0.350318
0.370784
0.292116
0.214641
0.237137
0.248613
0.288772
0.281374
0.399263
0.479998
0.403956
0.612721
0.862809
0.624306
0.466093
0.290405
0.278413
0.157357
0.154789
0.245285
0.279264
0.291943
0.270887
0.33133
0.32184
0.284467
0.355404
0.357908
0.318886
0.373838
0.58077
0.0460906
0.00234957
0.00497558
0.236882
0.26562
0.207396
0.261987
0.363058
0.452025
0.439214
0.527268
0.492156
0.401481
0.345577
0.305922
0.330038
0.265557
0.376795
0.163604
0.0847374
-0.0159194
0.0511847
0.149772
0.351316
0.404973
0.451722
0.516472
0.439612
0.493653
0.464819
0.488127
0.530001
0.38493
0.376283
0.355328
0.386321
0.425822
0.372964
0.21805
0.167445
0.204942
0.397983
0.37266
0.28353
0.270948
0.254289
0.331395
0.2602
0.375328
0.450236
0.322274
0.366243
0.251754
0.243995
0.433609
0.359826
0.289699
0.249287
0.174541
0.278763
0.294558
0.274316
0.317766
0.248102
0.260931
0.265113
0.349946
0.37194
0.331694
0.238693
0.0378538
0.157932
0.370587
0.492444
0.485688
0.477319
0.437248
0.476017
0.378674
0.292725
0.310179
0.309655
0.34219
0.300688
0.370936
0.362079
0.35859
0.4276
0.31512
0.258101
0.22399
0.204581
0.18682
0.176098
0.199343
0.26648
0.29171
0.298507
0.354589
0.470742
0.569188
0.513317
0.490489
0.475821
0.497618
0.419722
0.288951
0.255424
0.299756
0.226007
0.173487
0.202926
0.195258
0.249501
0.236167
0.129008
0.100784
0.101974
0.167719
0.200089
0.249992
0.218264
0.171908
0.19565
0.261508
0.33461
0.52544
0.528237
0.579596
0.515636
0.417213
0.387949
0.29717
0.29233
0.310889
0.292864
0.322236
0.358264
0.39388
0.450921
0.424277
0.428091
0.503438
0.597959
0.574047
0.433934
0.358262
0.406087
0.415139
0.408779
0.358517
0.345138
0.410216
0.40552
0.388685
0.359437
0.364116
0.485954
0.436522
0.401269
0.486682
0.567253
0.346529
0.256027
0.222578
0.31517
0.417325
0.463572
0.440143
0.303097
0.317429
0.441639
0.455387
0.401845
0.379245
0.403211
0.356315
0.37454
0.390269
0.430854
0.268654
0.314026
0.345404
0.205368
0.181006
0.146261
0.232363
0.260476
0.293145
0.269345
0.250922
0.269035
0.211668
0.337886
0.53405
0.584989
0.59323
0.579327
0.369313
0.358156
0.173979
0.174022
0.263106
0.300439
0.436209
0.39539
0.33218
0.276496
0.194281
0.331452
0.434611
0.399948
0.468193
0.5798
0.427271
0.309647
0.233503
0.204376
0.108848
0.258563
0.291518
0.337661
0.39895
0.315916
0.436352
0.447661
0.426568
0.469136
0.436208
0.469158
0.447588
0.409319
0.369888
0.343787
0.383766
0.255291
0.15784
0.240448
0.199909
0.251355
0.336871
0.318013
0.39001
0.420547
0.499972
0.53171
0.533967
0.567884
0.470721
0.415669
0.282694
0.176978
0.247432
0.215696
0.285058
0.443704
0.370514
0.350298
0.286367
0.291654
0.316283
0.331238
0.430851
0.349556
0.280919
0.216848
0.17601
0.253163
0.257348
0.304063
0.461162
0.453056
0.486425
0.526306
0.580197
0.631266
0.49807
0.375317
0.28544
0.276665
0.379864
0.324192
0.283267
0.200536
0.0666653
0.0240489
0.0349022
0.127358
0.108667
0.0247657
0.0859289
0.116745
0.146609
0.206331
0.224657
0.252238
0.291387
0.301016
0.262177
0.20957
0.267778
0.282493
0.268879
0.233765
0.172611
0.150244
0.379838
0.286224
0.320356
0.285147
0.433917
0.393899
0.352591
0.324042
0.330053
0.33951
0.375565
0.328147
0.389254
0.464286
0.423992
0.477067
0.486226
0.538655
0.618381
0.531953
0.531258
0.506846
0.521961
0.440667
0.363358
0.267629
0.361923
0.348172
0.491333
0.342401
0.261626
0.540696
0.422205
0.312231
0.406322
0.380786
0.430354
0.284363
0.246381
0.209076
0.214168
0.196408
0.166988
0.109279
0.171784
0.390358
0.596351
0.531179
0.390115
0.511587
0.583976
0.191762
0.275262
0.500148
0.269434
0.35119
0.434952
0.419446
0.279892
0.3891
0.393302
0.335251
0.284029
0.322644
0.397599
0.351883
0.2828
0.198822
0.469551
0.473526
0.327616
0.398671
0.0421095
-0.08667
-0.126245
0.0846298
0.208843
0.336228
0.376731
0.343971
0.402753
0.291984
0.324504
0.307041
0.198395
0.114792
0.0996947
0.276973
0.361583
0.178152
0.160303
0.0871613
0.0882515
0.229497
0.293726
0.354164
0.469147
0.539305
0.531423
0.361299
0.30077
0.390418
0.460123
0.446721
0.35211
0.258305
0.323098
0.3427
0.0998218
0.278561
0.285019
0.391619
0.455413
0.479372
0.46584
0.368333
0.292893
0.168137
0.0938198
0.0873987
0.148883
0.19793
0.260064
0.312695
0.253656
0.230835
0.21096
0.232438
0.165558
0.256433
0.374621
0.4089
0.389841
0.364998
0.348705
0.321969
0.305664
0.219774
0.176434
0.121796
0.0846653
0.105913
0.125217
0.217856
0.205738
0.266244
0.256402
0.248251
0.325036
0.404497
0.44042
0.47818
0.455285
0.368246
0.345893
0.272548
0.259211
0.255422
0.247294
0.305829
0.309045
0.287091
0.249188
0.404366
0.452472
0.497005
0.455162
0.41361
0.370387
0.323421
0.275712
0.222107
0.263345
0.28419
0.361131
0.430356
0.471123
0.512415
0.423719
0.326873
0.379575
0.354875
0.361526
0.337363
0.463976
0.516872
0.521752
0.435673
0.497747
0.446738
0.35571
0.453629
0.353011
0.475941
0.477809
0.414304
0.7168
0.673386
0.453071
0.405725
0.423046
0.427823
0.335608
0.42174
0.427966
0.293847
0.440662
0.367843
0.350223
0.386841
0.45092
0.644564
0.555493
0.475035
0.569532
0.684719
0.432806
0.297513
0.454455
0.67712
0.47707
0.501
0.363672
0.144289
0.279481
0.256819
0.444417
0.284089
0.314913
0.595846
0.67298
0.509254
0.550088
0.610894
0.325612
0.261439
0.332608
0.410716
0.313138
0.308254
0.185935
0.119768
0.138143
0.02101
0.321428
0.223063
0.196353
0.369312
0.566107
0.536627
0.513068
0.527262
0.290548
0.390706
0.477254
0.425844
0.306158
0.265078
0.199602
0.230174
0.384026
0.414165
0.437589
0.392734
0.518621
0.547591
0.492566
0.573426
0.552357
0.265845
0.386568
0.244409
0.213333
0.181392
0.19702
0.23412
0.247246
0.316017
0.391835
0.37745
0.295697
0.406291
0.472543
0.353174
0.396874
0.394787
0.272269
0.116495
0.172652
0.200325
0.24447
0.231615
0.211324
0.223136
0.295593
0.354805
0.354874
0.263865
0.260197
0.339601
0.192849
0.0976089
0.143685
0.0954028
0.0699994
0.166938
0.398317
0.355108
0.332707
0.451371
0.47826
0.442806
0.386789
0.303197
0.343716
0.27228
0.236443
0.246622
0.142003
0.194824
0.186968
0.164917
0.172912
0.281157
0.261277
0.276608
0.165272
0.175402
0.218123
0.291307
0.400753
0.415788
0.385653
0.243878
0.180169
0.175117
0.201307
0.306896
0.315103
0.419897
0.398416
0.370419
0.231697
0.278308
0.297783
0.293698
0.228849
0.214723
0.237867
0.227611
0.218671
0.213297
0.285719
0.296042
0.299276
0.317138
0.318756
0.372262
0.271212
0.218548
0.463803
0.402064
0.432588
0.369813
0.410134