/*--------------------------------*- C++ -*----------------------------------*\
| =========                 |                                                 |
| \\      /  F ield         | OpenFOAM: The Open Source CFD Toolbox           |
|  \\    /   O peration     | Version:  3.0.1                                 |
|   \\  /    A nd           | Web:      www.OpenFOAM.org                      |
|    \\/     M anipulation  |                                                 |
\*---------------------------------------------------------------------------*/
FoamFile
{
    version     2.0;
    format      ascii;
    class       volScalarField;
    location    "0.1";
    object      Ux_mode_0;
}
// * * * * * * * * * * * * * * * * * * * * * * * * * * * * * * * * * * * * * //

dimensions      [0 0 0 0 0 0 0];

internalField   nonuniform List<scalar> 
244500
(
-30.3419
-19.1138
-13.0875
-10.1764
-8.83726
-8.13294
-7.65918
-7.29171
-6.9724
-6.71767
-6.49528
-6.31211
-6.15162
-6.02478
-5.89857
-5.79912
-5.82479
-5.19845
-42.7391
-38.6418
-32.951
-28.1315
-24.9018
-22.8353
-21.3824
-20.277
-19.3656
-18.6411
-18.0007
-17.4752
-17.0166
-16.619
-16.2751
-15.951
-15.8838
-15.2414
-44.7019
-46.7767
-44.8531
-41.1274
-37.6394
-34.9384
-32.8713
-31.2391
-29.8929
-28.8109
-27.8539
-27.0464
-26.3606
-25.7151
-25.2129
-24.6694
-24.4961
-23.7929
-44.2142
-48.2161
-49.6046
-48.4819
-46.3655
-44.1726
-42.2056
-40.4712
-38.9728
-37.7043
-36.589
-35.5878
-34.7804
-33.93
-33.3413
-32.5912
-32.3589
-31.525
-43.9121
-47.2895
-49.7286
-50.4275
-50.0252
-49.1202
-48.0982
-46.9239
-45.7832
-44.6554
-43.6762
-42.6512
-41.9073
-40.9586
-40.399
-39.5029
-39.2609
-38.3436
-44.2138
-46.5756
-48.7119
-49.7876
-50.2528
-50.232
-50.1965
-49.8208
-49.4212
-48.761
-48.2898
-47.5159
-47.0864
-46.2543
-45.88
-45.0089
-44.7976
-43.9138
-44.0865
-45.9821
-47.9661
-48.8803
-49.5174
-49.5724
-49.9455
-50.0006
-50.2345
-49.9952
-50.0942
-49.7095
-49.6965
-49.2097
-49.143
-48.5648
-48.4407
-47.7804
-30.2756
-19.0847
-13.0986
-10.1913
-8.8452
-8.13525
-7.65794
-7.29463
-6.97656
-6.7307
-6.51066
-6.34177
-6.18426
-6.0705
-5.95617
-5.8762
-5.93928
-5.29432
-42.869
-38.7649
-33.0481
-28.1829
-24.9336
-22.8561
-21.3908
-20.2919
-19.3691
-18.666
-18.0294
-17.5419
-17.0856
-16.7143
-16.3949
-16.0799
-16.0765
-15.4363
-44.8544
-46.8989
-44.9266
-41.1576
-37.6688
-34.9723
-32.8901
-31.2709
-29.8972
-28.8427
-27.884
-27.132
-26.4547
-25.8335
-25.3851
-24.8177
-24.7207
-24.0094
-44.052
-48.1562
-49.5708
-48.4378
-46.3515
-44.2002
-42.2264
-40.5213
-38.9852
-37.7482
-36.6195
-35.677
-34.8968
-34.0461
-33.561
-32.7555
-32.6032
-31.7272
-43.8616
-47.2161
-49.6109
-50.3254
-49.9965
-49.1717
-48.1361
-46.998
-45.8149
-44.7235
-43.7197
-42.7344
-42.0479
-41.0495
-40.6412
-39.687
-39.5224
-38.5235
-44.0567
-46.3405
-48.5816
-49.7676
-50.2811
-50.3061
-50.2019
-49.8424
-49.4101
-48.812
-48.3304
-47.5709
-47.2398
-46.3077
-46.0949
-45.1974
-45.0665
-44.0783
-44.486
-45.9718
-47.9454
-48.981
-49.6646
-49.7707
-50.0436
-50.0693
-50.2633
-50.1001
-50.1923
-49.7714
-49.8696
-49.2498
-49.2764
-48.7032
-48.6775
-47.9204
-30.3754
-19.1516
-13.0986
-10.1801
-8.83891
-8.13785
-7.66481
-7.29433
-6.98308
-6.72633
-6.50893
-6.32754
-6.18619
-6.05964
-5.96233
-5.86226
-5.9278
-5.26881
-42.808
-38.6982
-32.9834
-28.1511
-24.9225
-22.8706
-21.4116
-20.289
-19.3812
-18.6326
-18.0194
-17.5047
-17.0917
-16.6944
-16.4252
-16.0724
-16.1016
-15.3569
-44.8425
-46.8105
-44.8736
-41.1467
-37.6656
-34.9987
-32.9281
-31.2679
-29.9222
-28.7814
-27.8644
-27.0688
-26.4592
-25.7979
-25.4373
-24.7971
-24.8124
-23.885
-44.161
-48.1707
-49.6053
-48.4876
-46.3763
-44.2411
-42.285
-40.5153
-39.0324
-37.6682
-36.5925
-35.5861
-34.8942
-33.9847
-33.6311
-32.7037
-32.7484
-31.5897
-44.0778
-47.3872
-49.7787
-50.4568
-50.0535
-49.2019
-48.1907
-46.9586
-45.8686
-44.6337
-43.6927
-42.6224
-42.0375
-40.9586
-40.7163
-39.6085
-39.6684
-38.4279
-44.3557
-46.6956
-48.8805
-49.9849
-50.3818
-50.2888
-50.2111
-49.7289
-49.4366
-48.7292
-48.3259
-47.464
-47.2374
-46.2035
-46.158
-45.1126
-45.1562
-44.0481
-44.2217
-46.0046
-48.0566
-49.0162
-49.5856
-49.5258
-49.9071
-49.8476
-50.1903
-49.9997
-50.202
-49.6901
-49.9011
-49.1781
-49.3281
-48.6494
-48.6916
-47.9331
-30.4477
-19.1917
-13.1365
-10.1923
-8.83776
-8.12898
-7.65531
-7.29243
-6.98015
-6.72977
-6.51236
-6.34096
-6.18235
-6.05284
-5.92682
-5.78613
-5.75004
-5.02681
-42.8766
-38.8109
-33.0869
-28.1829
-24.9131
-22.831
-21.3769
-20.286
-19.3756
-18.6592
-18.0408
-17.5425
-17.0962
-16.7128
-16.3723
-15.9842
-15.8669
-15.0013
-45.0036
-47.0434
-45.0481
-41.2048
-37.6528
-34.9255
-32.8537
-31.255
-29.9073
-28.8309
-27.91
-27.1304
-26.4769
-25.85
-25.3878
-24.7256
-24.6174
-23.5308
-44.2365
-48.3544
-49.7756
-48.5585
-46.3518
-44.128
-42.152
-40.48
-39.0018
-37.7319
-36.6721
-35.677
-34.9279
-34.074
-33.5944
-32.644
-32.63
-31.2373
-44.1854
-47.5262
-49.9169
-50.5272
-50.0245
-49.0899
-48.0321
-46.927
-45.8495
-44.7103
-43.8148
-42.757
-42.0894
-41.0901
-40.7009
-39.5379
-39.6472
-38.0635
-44.0327
-46.4641
-48.8393
-50.0198
-50.354
-50.2584
-50.133
-49.7902
-49.5197
-48.854
-48.4995
-47.6657
-47.3091
-46.3721
-46.1822
-45.007
-45.2266
-43.7087
-44.206
-46.0458
-48.1425
-49.2155
-49.8121
-49.8345
-50.0504
-49.9461
-50.2691
-50.03
-50.2579
-49.8349
-49.9017
-49.2843
-49.3725
-48.4882
-48.7959
-47.6721
-30.1275
-19.154
-13.1441
-10.2216
-8.86435
-8.14867
-7.66126
-7.29121
-6.97419
-6.72653
-6.50335
-6.33208
-6.17226
-6.05769
-5.93565
-5.85536
-5.82032
-5.21969
-43.1224
-38.9466
-33.1396
-28.2554
-24.9782
-22.8854
-21.3916
-20.2819
-19.3576
-18.6369
-17.9989
-17.5036
-17.0514
-16.6984
-16.3643
-16.0757
-15.9496
-15.3044
-44.9801
-47.0773
-45.0619
-41.2873
-37.7524
-35.031
-32.8997
-31.2623
-29.8852
-28.7931
-27.8357
-27.0618
-26.3936
-25.8064
-25.3458
-24.8093
-24.6476
-23.8594
-44.0702
-48.2067
-49.6718
-48.6076
-46.4859
-44.31
-42.2643
-40.5252
-38.9853
-37.6878
-36.5666
-35.5795
-34.8075
-33.9966
-33.5118
-32.7194
-32.5776
-31.6002
-44.2914
-47.52
-49.8524
-50.5668
-50.1538
-49.3065
-48.1941
-47.0092
-45.8334
-44.6626
-43.6818
-42.6271
-41.9402
-40.9783
-40.5787
-39.615
-39.5065
-38.4619
-43.8894
-46.35
-48.6568
-49.9012
-50.3393
-50.371
-50.2328
-49.8423
-49.46
-48.782
-48.3424
-47.4953
-47.1439
-46.2383
-46.0306
-45.1016
-45.0247
-44.0987
-44.5475
-46.2304
-48.148
-49.1821
-49.7315
-49.8305
-50.1247
-50.0941
-50.3116
-50.0483
-50.1885
-49.6997
-49.7835
-49.1882
-49.2291
-48.6223
-48.5953
-47.9894
-30.4107
-19.2007
-13.1288
-10.2021
-8.84776
-8.13421
-7.65474
-7.29187
-6.98321
-6.73951
-6.52357
-6.35637
-6.20209
-6.09773
-5.98969
-5.93756
-5.9709
-5.37701
-42.9951
-38.7979
-33.035
-28.1973
-24.9273
-22.8419
-21.3745
-20.2748
-19.3813
-18.6708
-18.0526
-17.5632
-17.1099
-16.7682
-16.4403
-16.1963
-16.1456
-15.6264
-44.854
-46.9111
-44.952
-41.2259
-37.6807
-34.9564
-32.8677
-31.2361
-29.9108
-28.833
-27.9077
-27.1516
-26.4721
-25.9029
-25.4212
-24.9435
-24.8107
-24.2114
-44.3607
-48.2679
-49.6414
-48.5578
-46.3959
-44.1972
-42.2094
-40.469
-39.0009
-37.7195
-36.6346
-35.6897
-34.8966
-34.1262
-33.5872
-32.8664
-32.7052
-31.9016
-43.9137
-47.3439
-49.708
-50.4418
-50.0217
-49.1432
-48.1008
-46.911
-45.8255
-44.6778
-43.7225
-42.738
-42.0206
-41.1328
-40.6655
-39.7781
-39.6294
-38.676
-44.3279
-46.5968
-48.6026
-49.7484
-50.2028
-50.1938
-50.1218
-49.728
-49.4394
-48.7914
-48.3468
-47.5832
-47.1898
-46.3861
-46.1257
-45.2741
-45.175
-44.2425
-43.9894
-45.9535
-47.9278
-48.9922
-49.6317
-49.7112
-50.0281
-49.9856
-50.2702
-50.0388
-50.1489
-49.7545
-49.7899
-49.3094
-49.3352
-48.7765
-48.7924
-48.1262
-30.1716
-19.112
-13.1211
-10.2108
-8.85774
-8.14471
-7.65481
-7.291
-6.97874
-6.73674
-6.51744
-6.35035
-6.18551
-6.07946
-5.95972
-5.91289
-5.94435
-5.38636
-42.7744
-38.6693
-33.0134
-28.1854
-24.9222
-22.8442
-21.3576
-20.2788
-19.3774
-18.6729
-18.0454
-17.5454
-17.0721
-16.7395
-16.3847
-16.1661
-16.0846
-15.6337
-44.9052
-46.9862
-44.9994
-41.2037
-37.6476
-34.9429
-32.8298
-31.2461
-29.9139
-28.847
-27.913
-27.1321
-26.4179
-25.8713
-25.3471
-24.9228
-24.7301
-24.2283
-43.7983
-48.1082
-49.5913
-48.4674
-46.3061
-44.1607
-42.1546
-40.4896
-39.0179
-37.7487
-36.6644
-35.686
-34.8329
-34.0964
-33.4939
-32.8532
-32.614
-31.9264
-44.1706
-47.4561
-49.787
-50.4367
-49.9802
-49.1642
-48.0967
-46.9824
-45.8819
-44.7292
-43.777
-42.7677
-41.9627
-41.1117
-40.5582
-39.757
-39.5336
-38.6863
-44.2813
-46.4175
-48.4833
-49.6287
-50.0807
-50.234
-50.2188
-49.9205
-49.6031
-48.9077
-48.4328
-47.659
-47.1634
-46.3822
-46.0259
-45.2344
-45.0745
-44.2164
-44.425
-46.0476
-47.958
-49.0009
-49.6048
-49.8139
-50.1835
-50.1813
-50.4061
-50.1103
-50.1697
-49.8023
-49.7861
-49.307
-49.2544
-48.7243
-48.6736
-48.059
-30.2506
-19.1355
-13.1113
-10.1943
-8.85278
-8.14065
-7.6626
-7.29325
-6.9854
-6.73378
-6.52281
-6.34606
-6.19481
-6.08013
-5.98057
-5.89582
-5.96501
-5.3114
-42.9232
-38.7997
-33.04
-28.1773
-24.9384
-22.8569
-21.4002
-20.2912
-19.3987
-18.6647
-18.0508
-17.5283
-17.0881
-16.7213
-16.4208
-16.115
-16.1554
-15.475
-44.8979
-47.0127
-44.9734
-41.186
-37.693
-34.9782
-32.9112
-31.2744
-29.9543
-28.8437
-27.9204
-27.1075
-26.4384
-25.8341
-25.3856
-24.8442
-24.8296
-24.0636
-44.102
-48.1792
-49.6045
-48.5178
-46.4397
-44.2442
-42.2801
-40.5335
-39.0771
-37.7609
-36.6807
-35.665
-34.8589
-34.0522
-33.5229
-32.7544
-32.7129
-31.7862
-43.9988
-47.2092
-49.6972
-50.5304
-50.208
-49.2887
-48.2457
-47.0241
-45.942
-44.758
-43.8089
-42.7689
-41.997
-41.0823
-40.5761
-39.6427
-39.6164
-38.5881
-43.929
-46.5001
-48.8352
-49.9597
-50.401
-50.3324
-50.2899
-49.8568
-49.5546
-48.8786
-48.4411
-47.6818
-47.201
-46.3804
-46.0441
-45.1122
-45.1258
-44.1788
-44.1898
-45.7877
-47.7497
-48.7155
-49.4779
-49.6519
-50.0964
-50.0499
-50.3149
-50.0878
-50.2011
-49.881
-49.8473
-49.3372
-49.2938
-48.6327
-48.6816
-48.0802
-30.4385
-19.177
-13.1274
-10.1929
-8.85167
-8.13509
-7.66788
-7.28603
-6.97647
-6.70767
-6.50969
-6.3009
-6.14449
-5.97913
-5.82259
-5.59617
-5.46544
-4.70038
-42.8276
-38.7414
-33.0378
-28.1647
-24.9385
-22.8454
-21.4117
-20.2591
-19.3707
-18.6103
-18.0352
-17.4532
-17.0507
-16.5735
-16.2162
-15.7027
-15.4674
-14.4129
-44.7747
-46.9124
-44.9883
-41.1806
-37.6981
-34.9594
-32.9332
-31.228
-29.9122
-28.7659
-27.9009
-27.006
-26.4361
-25.6827
-25.2102
-24.455
-24.2084
-22.9293
-44.3499
-48.2821
-49.6926
-48.4865
-46.4076
-44.1877
-42.3038
-40.489
-39.0312
-37.6687
-36.66
-35.5234
-34.8842
-33.9078
-33.3888
-32.4205
-32.2334
-30.7299
-43.9983
-47.3118
-49.7738
-50.3605
-50.0477
-49.1307
-48.2339
-46.9887
-45.91
-44.6661
-43.8086
-42.5846
-42.0203
-40.947
-40.4693
-39.3625
-39.2704
-37.6771
-44.2054
-46.5367
-48.8804
-49.8491
-50.3383
-50.1685
-50.2339
-49.8366
-49.5769
-48.8177
-48.5005
-47.4974
-47.1773
-46.2553
-45.9509
-44.8722
-44.8751
-43.4418
-44.5582
-45.9752
-47.9731
-48.7987
-49.6436
-49.6383
-50.0605
-50.081
-50.4444
-50.064
-50.2775
-49.7705
-49.7221
-49.1939
-49.2344
-48.4222
-48.4628
-47.5457
-30.1165
-19.0547
-13.0677
-10.1581
-8.81493
-8.11195
-7.64201
-7.27858
-6.97552
-6.71868
-6.52703
-6.33455
-6.19711
-6.05206
-5.95492
-5.7954
-5.86396
-5.09964
-42.8521
-38.666
-32.9534
-28.0991
-24.8553
-22.7916
-21.3402
-20.2442
-19.3635
-18.6261
-18.0674
-17.4935
-17.1236
-16.67
-16.4114
-15.9772
-16.0423
-15.0532
-44.7923
-46.8268
-44.8915
-41.0946
-37.5743
-34.8796
-32.8125
-31.1907
-29.8868
-28.7712
-27.9419
-27.0388
-26.5049
-25.7736
-25.3989
-24.7338
-24.753
-23.6479
-44.3453
-48.2892
-49.6402
-48.407
-46.2556
-44.0953
-42.1413
-40.4154
-38.9736
-37.6421
-36.6995
-35.5489
-34.9383
-33.9916
-33.5359
-32.6978
-32.6638
-31.4875
-43.9428
-47.3747
-49.8294
-50.4426
-50.0223
-49.142
-48.1034
-46.897
-45.8143
-44.5864
-43.8182
-42.5988
-42.0564
-41.0303
-40.5597
-39.6376
-39.5678
-38.4281
-44.2609
-46.5382
-48.8113
-49.9002
-50.3441
-50.2848
-50.1882
-49.7567
-49.4521
-48.6806
-48.4494
-47.4784
-47.1978
-46.3398
-45.9907
-45.1261
-45.0668
-44.1065
-44.2028
-45.8395
-47.9659
-48.9719
-49.5825
-49.5794
-49.8617
-49.8598
-50.2471
-49.9068
-50.2003
-49.7079
-49.7469
-49.2906
-49.2478
-48.6144
-48.6178
-48.0446
-30.342
-19.1133
-13.0897
-10.1768
-8.83911
-8.13672
-7.66294
-7.29619
-6.98286
-6.72642
-6.51189
-6.32784
-6.18269
-6.05289
-5.95623
-5.85445
-5.93913
-5.29467
-42.739
-38.6404
-32.9557
-28.1301
-24.9065
-22.841
-21.3872
-20.2857
-19.3846
-18.6521
-18.0337
-17.4969
-17.0742
-16.6577
-16.3817
-16.0291
-16.0797
-15.4299
-44.7015
-46.7742
-44.86
-41.1238
-37.6459
-34.9445
-32.8753
-31.2484
-29.9164
-28.8184
-27.8957
-27.0657
-26.4299
-25.7509
-25.3375
-24.7502
-24.7
-24.026
-44.2136
-48.211
-49.6138
-48.4764
-46.3724
-44.1783
-42.2094
-40.4769
-39.0001
-37.706
-36.6343
-35.6031
-34.8515
-33.9622
-33.464
-32.6733
-32.5387
-31.7662
-43.9108
-47.2807
-49.7418
-50.4222
-50.0318
-49.1247
-48.1045
-46.9223
-45.8123
-44.6523
-43.7182
-42.6648
-41.9713
-40.9901
-40.5081
-39.5833
-39.4043
-38.5759
-44.2166
-46.5608
-48.7275
-49.7837
-50.257
-50.2327
-50.2101
-49.8111
-49.4472
-48.7577
-48.322
-47.5297
-47.1349
-46.287
-45.9711
-45.0841
-44.8925
-44.1138
-44.0884
-45.9582
-47.9883
-48.8885
-49.5197
-49.565
-49.965
-49.9869
-50.2512
-49.994
-50.1166
-49.729
-49.7195
-49.2405
-49.2214
-48.635
-48.4805
-47.8909
-30.2756
-19.0846
-13.1008
-10.1918
-8.84667
-8.13977
-7.66116
-7.29957
-6.9866
-6.73946
-6.52659
-6.35935
-6.21264
-6.09941
-6.01014
-5.92715
-6.04858
-5.3869
-42.8676
-38.7656
-33.0525
-28.1817
-24.9382
-22.8627
-21.3935
-20.3039
-19.3841
-18.6782
-18.0632
-17.5638
-17.1405
-16.7581
-16.4904
-16.1577
-16.2637
-15.6043
-44.8503
-46.9001
-44.9333
-41.1542
-37.6758
-34.9795
-32.8895
-31.2871
-29.9131
-28.8515
-27.9305
-27.1465
-26.5235
-25.8778
-25.4929
-24.9006
-24.9237
-24.1981
-44.0444
-48.1553
-49.5812
-48.4328
-46.3601
-44.2089
-42.2213
-40.5388
-39.0022
-37.7474
-36.6769
-35.6797
-34.9705
-34.0899
-33.6621
-32.8388
-32.7959
-31.9107
-43.8514
-47.2108
-49.6284
-50.321
-50.0049
-49.1842
-48.1283
-47.0117
-45.8354
-44.7087
-43.7837
-42.7269
-42.1161
-41.0985
-40.7229
-39.7658
-39.6962
-38.6962
-44.0476
-46.3255
-48.6056
-49.769
-50.2864
-50.3228
-50.1962
-49.8433
-49.437
-48.7846
-48.3899
-47.5596
-47.2912
-46.3652
-46.1558
-45.2612
-45.2091
-44.2509
-44.4889
-45.9298
-47.9748
-49.0013
-49.6614
-49.7895
-50.0533
-50.052
-50.2902
-50.0701
-50.2323
-49.7645
-49.8965
-49.3121
-49.3301
-48.7466
-48.7556
-48.095
-30.3753
-19.1514
-13.1014
-10.1799
-8.84072
-8.14124
-7.66893
-7.29841
-6.99142
-6.73625
-6.52196
-6.34479
-6.21133
-6.08913
-6.00843
-5.91254
-6.03012
-5.33137
-42.8066
-38.6982
-32.989
-28.1486
-24.9285
-22.8747
-21.4172
-20.2972
-19.3954
-18.6476
-18.0434
-17.5332
-17.1341
-16.743
-16.5048
-16.1499
-16.2756
-15.4943
-44.8385
-46.8102
-44.8815
-41.1412
-37.6747
-35.0022
-32.9331
-31.2774
-29.9384
-28.7958
-27.8926
-27.1003
-26.5049
-25.8527
-25.5252
-24.8793
-24.9989
-24.0457
-44.1539
-48.1679
-49.6169
-48.4801
-46.3873
-44.244
-42.2897
-40.5229
-39.0497
-37.6795
-36.6204
-35.6187
-34.9347
-34.0421
-33.7149
-32.7808
-32.9287
-31.7408
-44.0694
-47.3792
-49.7959
-50.4492
-50.0647
-49.2047
-48.1979
-46.9616
-45.8856
-44.6424
-43.7147
-42.6573
-42.0675
-41.0157
-40.7937
-39.6683
-39.8406
-38.5556
-44.3479
-46.6793
-48.905
-49.9837
-50.3913
-50.2901
-50.2248
-49.7251
-49.4488
-48.7378
-48.3369
-47.5002
-47.2572
-46.2529
-46.2344
-45.1446
-45.3115
-44.1553
-44.2213
-45.9705
-48.083
-49.0312
-49.5949
-49.5191
-49.9315
-49.8415
-50.1929
-50.0097
-50.2023
-49.7214
-49.9167
-49.2104
-49.4102
-48.6564
-48.8041
-48.0219
-30.4478
-19.1907
-13.1386
-10.1927
-8.8388
-8.13274
-7.65699
-7.29705
-6.98542
-6.7382
-6.52093
-6.35428
-6.19962
-6.07405
-5.95452
-5.82162
-5.80146
-5.05824
-42.8766
-38.8084
-33.092
-28.1816
-24.9161
-22.8381
-21.3766
-20.2973
-19.3824
-18.6737
-18.0555
-17.566
-17.1255
-16.7483
-16.424
-16.0446
-15.9565
-15.0882
-45.0035
-47.0388
-45.0556
-41.2018
-37.6561
-34.9354
-32.85
-31.2704
-29.9132
-28.8473
-27.9256
-27.1573
-26.5095
-25.8877
-25.4488
-24.7929
-24.7132
-23.6455
-44.2367
-48.3456
-49.7848
-48.5551
-46.3536
-44.1405
-42.1451
-40.497
-39.0061
-37.7489
-36.685
-35.7045
-34.9604
-34.1078
-33.6575
-32.7104
-32.7164
-31.3613
-44.1862
-47.5125
-49.9271
-50.5265
-50.0231
-49.1043
-48.0246
-46.9432
-45.8511
-44.7285
-43.8224
-42.7825
-42.1209
-41.1161
-40.7633
-39.5976
-39.7169
-38.1869
-44.0364
-46.4446
-48.8475
-50.0265
-50.349
-50.2726
-50.1297
-49.804
-49.5165
-48.8752
-48.5007
-47.6866
-47.3387
-46.3875
-46.2452
-45.0543
-45.2718
-43.8286
-44.2165
-46.021
-48.1408
-49.2342
-49.8095
-49.841
-50.0543
-49.9577
-50.261
-50.0568
-50.2531
-49.8536
-49.9264
-49.2842
-49.4426
-48.5215
-48.8055
-47.7793
-30.1273
-19.1535
-13.1457
-10.2218
-8.86545
-8.15067
-7.66302
-7.29454
-6.97768
-6.73224
-6.50951
-6.34052
-6.18127
-6.07097
-5.9466
-5.87104
-5.83153
-5.22979
-43.1219
-38.9454
-33.1426
-28.2547
-24.9811
-22.8885
-21.394
-20.2886
-19.3622
-18.6479
-18.0091
-17.5189
-17.068
-16.7237
-16.3838
-16.1113
-15.9739
-15.3394
-44.9791
-47.0753
-45.0658
-41.2856
-37.7561
-35.0345
-32.9014
-31.2711
-29.8886
-28.8064
-27.8468
-27.079
-26.4126
-25.8373
-25.3672
-24.8549
-24.6788
-23.9076
-44.0683
-48.2034
-49.6762
-48.6058
-46.4891
-44.3139
-42.2646
-40.5356
-38.9866
-37.7014
-36.5774
-35.5956
-34.826
-34.0294
-33.5322
-32.7671
-32.6112
-31.655
-44.2892
-47.5148
-49.8568
-50.5662
-50.1557
-49.3114
-48.1929
-47.0201
-45.8332
-44.6742
-43.6925
-42.641
-41.9556
-41.0102
-40.5983
-39.6592
-39.5352
-38.522
-43.8873
-46.3417
-48.6602
-49.9053
-50.3388
-50.3772
-50.2307
-49.8519
-49.4607
-48.7893
-48.352
-47.5085
-47.1544
-46.264
-46.052
-45.1406
-45.0391
-44.155
-44.5446
-46.2254
-48.1476
-49.1886
-49.7278
-49.8391
-50.1247
-50.0999
-50.3165
-50.0508
-50.1925
-49.7177
-49.79
-49.1986
-49.2566
-48.6571
-48.5926
-48.02
-30.411
-19.2001
-13.1296
-10.2026
-8.84798
-8.13523
-7.6555
-7.29306
-6.98471
-6.74181
-6.52539
-6.36104
-6.20639
-6.10401
-5.99898
-5.94626
-5.98193
-5.39003
-42.9964
-38.7959
-33.0369
-28.1968
-24.9285
-22.8435
-21.375
-20.2782
-19.382
-18.6757
-18.0547
-17.5723
-17.1159
-16.7805
-16.4566
-16.2081
-16.173
-15.6522
-44.8566
-46.9077
-44.9549
-41.2237
-37.6829
-34.958
-32.8671
-31.2419
-29.9092
-28.8402
-27.9084
-27.1632
-26.4769
-25.9176
-25.4412
-24.9501
-24.8497
-24.2408
-44.3649
-48.2628
-49.6453
-48.5536
-46.3988
-44.1987
-42.2069
-40.4779
-38.996
-37.7291
-36.633
-35.7032
-34.8987
-34.1406
-33.6128
-32.8605
-32.752
-31.9388
-43.919
-47.336
-49.7137
-50.4355
-50.0251
-49.1448
-48.0955
-46.9236
-45.8172
-44.6894
-43.7183
-42.7528
-42.0203
-41.1428
-40.7014
-39.7582
-39.6717
-38.7312
-44.3345
-46.5868
-48.6101
-49.7402
-50.2054
-50.1966
-50.1135
-49.7439
-49.4293
-48.8047
-48.3405
-47.598
-47.1888
-46.3874
-46.171
-45.2529
-45.1971
-44.3012
-44.0004
-45.936
-47.9373
-48.9858
-49.6309
-49.7164
-50.0192
-50.0027
-50.262
-50.0513
-50.1421
-49.7686
-49.7892
-49.3024
-49.377
-48.7769
-48.7987
-48.1402
-30.1717
-19.1123
-13.12
-10.2112
-8.85736
-8.14406
-7.65573
-7.28999
-6.97842
-6.73682
-6.51665
-6.34901
-6.18428
-6.07857
-5.95765
-5.9129
-5.94206
-5.4016
-42.7753
-38.6697
-33.0112
-28.1869
-24.9206
-22.843
-21.3608
-20.2749
-19.3786
-18.674
-18.0418
-17.5458
-17.0686
-16.7369
-16.3807
-16.164
-16.0783
-15.6468
-44.907
-46.987
-44.996
-41.206
-37.6455
-34.94
-32.836
-31.2394
-29.9156
-28.8507
-27.9058
-27.1353
-26.4131
-25.8675
-25.3431
-24.9169
-24.7246
-24.2334
-43.8004
-48.111
-49.5869
-48.4699
-46.3052
-44.1538
-42.1643
-40.4812
-39.0177
-37.7567
-36.6533
-35.6921
-34.8278
-34.0915
-33.4924
-32.8414
-32.6131
-31.9252
-44.1721
-47.4622
-49.7816
-50.4379
-49.9832
-49.1516
-48.1087
-46.9751
-45.8766
-44.742
-43.7632
-42.7758
-41.9583
-41.1057
-40.5617
-39.7385
-39.5384
-38.6827
-44.281
-46.4274
-48.4774
-49.6239
-50.0931
-50.2133
-50.2295
-49.9194
-49.5904
-48.9227
-48.4191
-47.6674
-47.1608
-46.3764
-46.0349
-45.2109
-45.084
-44.2187
-44.4184
-46.0615
-47.9586
-48.9819
-49.6294
-49.7913
-50.1841
-50.1893
-50.3879
-50.1208
-50.1607
-49.8092
-49.7833
-49.3066
-49.2663
-48.7014
-48.682
-48.0772
-30.2514
-19.1341
-13.1115
-10.1946
-8.8507
-8.14124
-7.65984
-7.29277
-6.98073
-6.73144
-6.51748
-6.34083
-6.18685
-6.07499
-5.96661
-5.89081
-5.94389
-5.33486
-42.9262
-38.7948
-33.0423
-28.1763
-24.9343
-22.8618
-21.3911
-20.294
-19.3885
-18.6617
-18.0406
-17.5186
-17.0743
-16.7116
-16.3912
-16.1099
-16.1045
-15.4923
-44.9041
-47.0042
-44.9775
-41.1846
-37.686
-34.9887
-32.8966
-31.2815
-29.9411
-28.8411
-27.9091
-27.095
-26.4234
-25.8228
-25.3486
-24.8402
-24.7661
-24.0711
-44.1118
-48.1678
-49.6081
-48.5173
-46.4282
-44.2598
-42.2616
-40.5447
-39.0624
-37.7591
-36.671
-35.65
-34.8455
-34.0398
-33.4843
-32.7511
-32.6456
-31.7876
-44.0101
-47.1954
-49.6955
-50.5321
-50.1917
-49.3067
-48.2259
-47.0392
-45.9273
-44.7574
-43.8034
-42.7518
-41.9871
-41.0688
-40.5398
-39.6408
-39.5501
-38.5833
-43.9383
-46.4906
-48.8257
-49.9656
-50.383
-50.3445
-50.2725
-49.8749
-49.5407
-48.8781
-48.4423
-47.6642
-47.1943
-46.3672
-46.0145
-45.109
-45.0654
-44.1725
-44.194
-45.7818
-47.7272
-48.7198
-49.4767
-49.6559
-50.0841
-50.0679
-50.3033
-50.0828
-50.2096
-49.8695
-49.8389
-49.3239
-49.2821
-48.6238
-48.6241
-48.0851
-30.4383
-19.176
-13.1265
-10.1934
-8.84854
-8.13436
-7.66595
-7.28178
-6.96994
-6.70437
-6.49907
-6.29041
-6.12875
-5.96363
-5.78793
-5.56972
-5.40044
-4.68364
-42.8279
-38.7392
-33.0364
-28.1662
-24.9316
-22.8482
-21.4051
-20.2521
-19.3628
-18.6034
-18.0155
-17.4413
-17.0194
-16.5516
-16.1534
-15.6679
-15.3504
-14.3574
-44.7756
-46.9094
-44.9861
-41.1839
-37.6871
-34.9677
-32.9235
-31.2198
-29.9062
-28.7575
-27.8765
-26.9987
-26.3962
-25.6633
-25.1376
-24.422
-24.079
-22.8601
-44.3505
-48.2793
-49.6877
-48.4933
-46.3906
-44.2019
-42.2933
-40.4801
-39.0274
-37.6614
-36.632
-35.5226
-34.8412
-33.8916
-33.3168
-32.3916
-32.1101
-30.6672
-43.9989
-47.3087
-49.7618
-50.374
-50.023
-49.1494
-48.226
-46.9814
-45.9061
-44.6634
-43.7791
-42.5863
-41.9798
-40.9339
-40.4009
-39.3377
-39.1612
-37.6395
-44.2005
-46.5432
-48.8588
-49.8729
-50.3035
-50.1823
-50.2326
-49.8378
-49.5658
-48.8194
-48.4791
-47.4927
-47.1388
-46.2522
-45.8868
-44.8429
-44.7849
-43.4407
-44.5484
-45.983
-47.9311
-48.841
-49.6169
-49.6391
-50.0623
-50.1055
-50.4182
-50.0558
-50.2837
-49.7581
-49.6656
-49.2104
-49.1899
-48.365
-48.3883
-47.5831
-30.1155
-19.0556
-13.0654
-10.1577
-8.81443
-8.10797
-7.64012
-7.27228
-6.96798
-6.71153
-6.51361
-6.32032
-6.17308
-6.03144
-5.91386
-5.7588
-5.78659
-5.08272
-42.8484
-38.671
-32.9459
-28.1026
-24.8536
-22.7825
-21.3421
-20.2281
-19.3541
-18.6155
-18.039
-17.4769
-17.0762
-16.6409
-16.3321
-15.9242
-15.9058
-14.9745
-44.7841
-46.8375
-44.8786
-41.1021
-37.5731
-34.866
-32.8208
-31.1678
-29.8778
-28.7631
-27.9031
-27.0289
-26.4452
-25.7469
-25.3051
-24.6761
-24.6121
-23.5222
-44.3314
-48.3079
-49.6221
-48.4171
-46.2569
-44.0785
-42.1561
-40.3899
-38.9634
-37.6407
-36.6522
-35.5475
-34.8744
-33.9687
-33.4433
-32.6345
-32.5507
-31.3285
-43.9213
-47.4032
-49.8076
-50.4549
-50.0269
-49.1255
-48.122
-46.8742
-45.8007
-44.5932
-43.767
-42.6022
-41.9952
-41.0102
-40.4777
-39.5673
-39.4942
-38.2565
-44.2343
-46.5802
-48.7832
-49.911
-50.3484
-50.274
-50.2068
-49.7428
-49.4331
-48.6926
-48.4026
-47.4797
-47.1438
-46.3212
-45.9222
-45.0572
-45.0294
-43.9266
-44.1559
-45.9039
-47.9458
-48.9838
-49.5816
-49.5776
-49.8715
-49.8599
-50.2204
-49.9158
-50.1689
-49.6984
-49.7023
-49.2757
-49.1797
-48.5678
-48.622
-47.8381
-44.6449
-45.5665
-47.0574
-47.8012
-48.6618
-48.7974
-49.2682
-49.4276
-49.8366
-49.6605
-49.8571
-49.7677
-49.8981
-49.8784
-50.0375
-50.0677
-50.0331
-49.8742
-44.1694
-44.9565
-46.1148
-46.9556
-47.6082
-47.8324
-48.0149
-48.1813
-48.5309
-48.6613
-48.7702
-48.9375
-49.0424
-49.2037
-49.1543
-49.4252
-49.3833
-49.4881
-43.9606
-44.6215
-45.5704
-46.3603
-46.742
-47.2732
-47.3683
-47.3949
-47.6057
-47.8077
-47.8443
-48.0674
-48.1665
-48.3339
-48.418
-48.5655
-48.6166
-48.6804
-44.3583
-44.5928
-44.9174
-45.5066
-45.9381
-46.5112
-46.7374
-46.8186
-46.9568
-47.0759
-47.2606
-47.4324
-47.3919
-47.5934
-47.7124
-47.8317
-47.8079
-47.8222
-44.2244
-44.3915
-44.7731
-45.2414
-45.5583
-45.9685
-46.1491
-46.3125
-46.403
-46.5084
-46.784
-46.9111
-46.8712
-47.0505
-47.1475
-47.3202
-47.3716
-47.4574
-44.284
-44.3676
-44.5325
-44.8069
-44.9981
-45.2741
-45.4895
-45.8059
-45.9899
-46.0402
-46.1684
-46.2817
-46.436
-46.5286
-46.5551
-46.8396
-46.7814
-46.8496
-44.1413
-44.3404
-44.4907
-44.9066
-45.2494
-45.4545
-45.5869
-45.6759
-45.7826
-45.8967
-45.9986
-46.0393
-46.1238
-46.1837
-46.274
-46.501
-46.5347
-46.7085
-44.2782
-44.2845
-44.3813
-44.5045
-44.6781
-44.8586
-45.0088
-45.2343
-45.5636
-45.735
-45.7931
-45.7997
-45.9105
-46.0293
-46.118
-46.2871
-46.3409
-46.4349
-44.0943
-44.0722
-44.1905
-44.2629
-44.427
-44.627
-44.8642
-45.0671
-45.246
-45.3755
-45.5219
-45.6806
-45.8829
-46.0491
-46.1965
-46.3422
-46.3685
-46.4118
-44.2109
-44.1069
-44.2372
-44.3784
-44.4499
-44.5563
-44.6909
-44.7644
-44.9251
-45.1107
-45.2891
-45.441
-45.6165
-45.8136
-45.8989
-45.9343
-45.9885
-46.068
-43.9494
-45.1793
-46.9359
-47.8304
-48.5961
-48.7048
-49.0508
-49.1167
-49.5454
-49.5954
-49.9255
-49.8541
-50.1295
-50.0591
-50.1754
-50.1383
-50.2518
-50.0041
-44.2855
-45.0517
-46.2471
-47.1492
-47.7834
-48.0549
-48.3881
-48.5342
-48.7311
-48.8198
-48.9811
-49.12
-49.1528
-49.368
-49.3786
-49.4965
-49.6115
-49.7277
-44.2205
-44.6684
-45.3656
-46.2268
-46.8241
-47.1867
-47.2877
-47.4468
-47.635
-47.7228
-47.7881
-48.1551
-48.2056
-48.4183
-48.62
-48.7408
-48.7619
-48.9484
-44.422
-44.7963
-45.1587
-45.719
-46.185
-46.4943
-46.6271
-46.6766
-46.842
-46.9272
-47.0462
-47.4758
-47.5458
-47.7244
-47.8974
-47.9255
-47.939
-48.036
-44.3219
-44.6397
-44.7118
-45.0915
-45.4692
-45.828
-46.2155
-46.3421
-46.5984
-46.7915
-46.8105
-46.999
-47.021
-47.0693
-47.1909
-47.3755
-47.4335
-47.4949
-44.1551
-44.3992
-44.5116
-44.8853
-45.1661
-45.4684
-45.6724
-45.6909
-45.9629
-46.1924
-46.2892
-46.3838
-46.4566
-46.6456
-46.6582
-46.7565
-46.843
-46.8958
-43.9001
-44.0756
-44.261
-44.6798
-44.8684
-45.119
-45.333
-45.4288
-45.6768
-45.8371
-45.9015
-46.009
-46.1479
-46.2986
-46.3684
-46.5205
-46.5082
-46.5212
-43.9566
-44.1767
-44.4085
-44.6995
-44.8485
-45.0395
-45.1892
-45.3459
-45.5285
-45.598
-45.6886
-45.8171
-45.8911
-45.8829
-45.9722
-46.1888
-46.2906
-46.4285
-43.9757
-43.9746
-44.0905
-44.2348
-44.4472
-44.6901
-44.8742
-44.9867
-45.0873
-45.3289
-45.6309
-45.7617
-45.8436
-45.9603
-46.0438
-46.0568
-46.1332
-46.2803
-44.3156
-44.2373
-44.2208
-44.3174
-44.4307
-44.5998
-44.7419
-44.8335
-45.0304
-45.1804
-45.2543
-45.4403
-45.6656
-45.8791
-45.9778
-46.0122
-46.1553
-46.2014
-44.4838
-45.5248
-47.1086
-47.8436
-48.6868
-48.7483
-49.1739
-49.164
-49.5084
-49.5062
-49.9002
-49.7387
-50.1226
-49.9823
-50.1431
-50.1035
-50.1842
-49.998
-44.3005
-45.0415
-46.114
-46.9054
-47.5188
-47.8653
-48.1823
-48.2944
-48.5978
-48.74
-49.0834
-49.0633
-49.0533
-49.2858
-49.2477
-49.3979
-49.5313
-49.6864
-44.1457
-44.6094
-45.4434
-46.299
-46.7514
-47.1527
-47.4242
-47.6417
-47.7453
-47.8315
-47.9698
-48.1104
-48.0272
-48.2158
-48.4492
-48.5404
-48.7011
-48.9485
-44.3781
-44.6552
-45.2228
-45.9101
-46.1635
-46.4689
-46.6381
-46.918
-47.0161
-47.0197
-47.126
-47.4137
-47.6055
-47.6487
-47.803
-47.9056
-47.8698
-48.0671
-44.1931
-44.4658
-44.6649
-45.0433
-45.2643
-45.6494
-46.0075
-46.158
-46.348
-46.4722
-46.6442
-46.8782
-47.1066
-47.2537
-47.1229
-47.2598
-47.3896
-47.4307
-43.9832
-44.2111
-44.3167
-44.5234
-44.8053
-45.2785
-45.606
-45.6916
-45.9148
-46.1718
-46.2549
-46.2895
-46.3955
-46.5977
-46.7139
-46.9217
-47.038
-47.0813
-44.1419
-44.141
-44.2927
-44.6456
-44.9781
-45.2174
-45.2491
-45.3295
-45.6275
-45.8863
-46.069
-46.1588
-46.2306
-46.2909
-46.3177
-46.5194
-46.546
-46.6616
-43.9838
-44.0303
-44.1163
-44.273
-44.5803
-44.8553
-45.0518
-45.2489
-45.4867
-45.6069
-45.7425
-45.8324
-45.8753
-45.9728
-46.0307
-46.1027
-46.1799
-46.3889
-44.1099
-44.18
-44.3074
-44.3722
-44.4645
-44.6371
-44.9269
-45.1126
-45.2615
-45.359
-45.4759
-45.584
-45.6759
-45.8998
-46.049
-46.0584
-46.0636
-46.0962
-44.2069
-44.2893
-44.4563
-44.656
-44.6993
-44.6526
-44.7368
-44.7889
-44.9345
-45.1052
-45.2924
-45.4823
-45.539
-45.6577
-45.7478
-45.9624
-46.151
-46.1871
-44.1523
-45.2303
-47.0288
-48.0504
-48.8454
-48.9116
-49.1858
-49.1189
-49.572
-49.5117
-49.8432
-49.761
-50.0276
-49.9359
-50.2023
-49.9498
-50.2581
-49.919
-44.3946
-44.9871
-46.0569
-46.9541
-47.5142
-47.9429
-48.209
-48.1873
-48.4636
-48.5472
-48.7889
-48.7834
-48.9892
-49.2487
-49.3756
-49.5215
-49.5557
-49.747
-43.9619
-44.4701
-45.2969
-46.2621
-46.6798
-47.2719
-47.4903
-47.4554
-47.6155
-47.6997
-47.9706
-48.0563
-48.152
-48.2786
-48.3734
-48.531
-48.5636
-48.8309
-44.3438
-44.5949
-44.9006
-45.4546
-45.7459
-46.1878
-46.5026
-46.8512
-47.0844
-47.0964
-47.3867
-47.5199
-47.5911
-47.607
-47.7704
-48.0904
-48.0899
-48.2015
-44.184
-44.3972
-44.674
-45.1014
-45.3493
-45.6891
-46.0265
-46.3707
-46.631
-46.7809
-46.8688
-46.9177
-47.096
-47.0776
-47.0173
-47.2918
-47.3361
-47.3345
-44.2211
-44.2234
-44.3313
-44.5779
-44.9262
-45.3182
-45.6269
-45.8301
-45.9905
-46.1785
-46.2169
-46.3452
-46.5492
-46.5866
-46.5495
-46.6449
-46.6783
-46.7902
-44.2039
-44.2352
-44.3776
-44.518
-44.7561
-45.0887
-45.3191
-45.4307
-45.6136
-45.7558
-45.8769
-46.0423
-46.0809
-46.1818
-46.2184
-46.3415
-46.4776
-46.7051
-44.2115
-44.2263
-44.2636
-44.4308
-44.6112
-44.7546
-44.951
-45.1303
-45.4011
-45.5396
-45.7264
-45.9435
-45.9223
-46.06
-46.053
-46.1197
-46.1989
-46.3736
-44.065
-44.1029
-44.1675
-44.3973
-44.6493
-44.8649
-45.1161
-45.2218
-45.3148
-45.3157
-45.3828
-45.4633
-45.4615
-45.6998
-45.758
-45.8975
-45.9591
-46.0476
-44.2258
-44.2605
-44.2687
-44.3035
-44.4257
-44.5867
-44.6901
-44.8145
-44.9991
-45.1622
-45.3959
-45.4382
-45.46
-45.6059
-45.6294
-45.7609
-45.8395
-45.9788
-44.3021
-45.4825
-47.1179
-47.9896
-48.6759
-48.8023
-49.2008
-49.2276
-49.6177
-49.6032
-49.9735
-49.8283
-50.0787
-49.9594
-50.0845
-50.0588
-50.101
-49.9616
-44.2754
-44.9642
-46.1014
-46.9672
-47.5751
-47.9436
-48.2507
-48.2535
-48.3152
-48.4816
-48.8266
-49.0351
-49.178
-49.3542
-49.3949
-49.363
-49.4681
-49.4913
-44.3519