/*--------------------------------*- C++ -*----------------------------------*\
| =========                 |                                                 |
| \\      /  F ield         | OpenFOAM: The Open Source CFD Toolbox           |
|  \\    /   O peration     | Version:  3.0.1                                 |
|   \\  /    A nd           | Web:      www.OpenFOAM.org                      |
|    \\/     M anipulation  |                                                 |
\*---------------------------------------------------------------------------*/
FoamFile
{
    version     2.0;
    format      ascii;
    class       volScalarField;
    location    "0.1";
    object      Uy;
}
// * * * * * * * * * * * * * * * * * * * * * * * * * * * * * * * * * * * * * //

dimensions      [0 1 -1 0 0 0 0];

internalField   nonuniform List<scalar> 
244500
(
0.247475
0.104013
0.0128334
-0.00450235
-0.00380712
-0.00191981
-0.000687868
-0.000189677
0.000269658
-0.00032788
0.000182137
0.000194312
-0.000119918
2.43277e-05
0.000415428
-0.00021061
0.00146274
-0.025209
0.628756
0.474767
0.226092
0.108537
0.0564412
0.0338047
0.0246879
0.020006
0.0174682
0.0128791
0.0125784
0.0110195
0.00898024
0.00863117
0.00974892
0.00531078
0.0144066
-0.0188542
0.545478
0.579376
0.358931
0.225192
0.148459
0.100944
0.0741275
0.0579125
0.0483138
0.0372321
0.034665
0.0299791
0.0256545
0.0237178
0.0254711
0.0166549
0.0270022
0.000643588
0.425876
0.557121
0.400322
0.296374
0.230332
0.176508
0.137839
0.10971
0.090869
0.0710676
0.0649938
0.0556141
0.0487787
0.044097
0.0465656
0.0330539
0.0438694
0.0236835
0.315993
0.477239
0.372716
0.296418
0.256668
0.218685
0.186077
0.156656
0.134109
0.107296
0.0992038
0.0845593
0.0758552
0.0678947
0.0707281
0.0534645
0.0627803
0.0488473
0.260236
0.435899
0.359625
0.277142
0.243521
0.219444
0.201747
0.180531
0.161844
0.13185
0.126062
0.108458
0.100258
0.0908931
0.0941291
0.0751379
0.0817013
0.07396
0.20581
0.36323
0.337524
0.261799
0.22769
0.204792
0.193638
0.178353
0.167328
0.136277
0.13593
0.118557
0.113714
0.106122
0.110255
0.0935908
0.0962608
0.0962616
0.236686
0.101607
0.0123148
-0.00447615
-0.00367235
-0.00179646
-0.000659409
-0.000363087
0.000286813
-0.000120091
1.00392e-05
0.0002595
-9.81993e-05
-3.88267e-05
0.000220336
7.17486e-05
0.00209682
-0.0270939
0.630708
0.471418
0.225893
0.109789
0.0572317
0.0339716
0.0243604
0.0192311
0.0175043
0.013375
0.0119191
0.0109326
0.00883906
0.00783233
0.00915055
0.00416605
0.0161159
-0.0271312
0.561862
0.586357
0.364985
0.230941
0.151464
0.101564
0.0732295
0.0563964
0.0484157
0.0379101
0.0335127
0.0296602
0.0253382
0.0220355
0.0247838
0.0148726
0.0288089
-0.0088093
0.40725
0.556629
0.404477
0.301346
0.232859
0.176573
0.13571
0.106954
0.0909132
0.07181
0.0633342
0.055062
0.048287
0.0413985
0.0456514
0.0310112
0.044462
0.0145746
0.307457
0.489668
0.389902
0.310932
0.264907
0.221195
0.183495
0.152789
0.134402
0.108461
0.0974551
0.0842892
0.075369
0.0642415
0.0692165
0.0518691
0.061406
0.0409691
0.244793
0.425494
0.35872
0.280635
0.245957
0.218741
0.195361
0.172604
0.160002
0.131824
0.122983
0.108219
0.100185
0.0866374
0.091595
0.0745865
0.0781815
0.0657907
0.201724
0.376972
0.348085
0.271653
0.238596
0.216571
0.200414
0.181092
0.17293
0.140346
0.133644
0.118058
0.113077
0.101225
0.105928
0.0959569
0.0939233
0.0880634
0.246581
0.10416
0.0131959
-0.00423617
-0.00380523
-0.00199316
-0.000707337
-0.000316169
6.76778e-05
0.000176005
7.17612e-06
0.000443483
2.2381e-05
0.000233418
-2.72291e-05
0.000376477
0.00113429
-0.0288238
0.633909
0.479751
0.230341
0.11111
0.0569697
0.03359
0.0246484
0.0196373
0.0172865
0.0146534
0.0122066
0.0114722
0.00933492
0.00809955
0.00848331
0.00477471
0.0127655
-0.0273632
0.58083
0.594865
0.366762
0.22997
0.149786
0.100688
0.0739994
0.0572619
0.0486392
0.0405469
0.0344828
0.0305722
0.02639
0.0217183
0.0237713
0.0150136
0.0248317
-0.0124252
0.431865
0.569959
0.407558
0.300589
0.232224
0.17758
0.138995
0.109194
0.0922799
0.0763712
0.065622
0.0565918
0.0502988
0.0400829
0.0446689
0.0298694
0.0406977
0.00964951
0.339426
0.503495
0.39028
0.304905
0.259459
0.21979
0.18746
0.155294
0.13603
0.114386
0.100774
0.0864506
0.0786303
0.0617964
0.0684181
0.0490186
0.0582623
0.0348607
0.256992
0.425804
0.353982
0.281038
0.254036
0.230104
0.209585
0.18049
0.164861
0.142009
0.129692
0.113083
0.105735
0.0837218
0.0908863
0.0700438
0.0741278
0.0614509
0.220104
0.384344
0.346963
0.264275
0.233834
0.214739
0.205313
0.179916
0.169073
0.146051
0.137738
0.123849
0.120765
0.0993397
0.106599
0.0914035
0.0882248
0.0870633
0.251629
0.106273
0.0135094
-0.00414256
-0.00370267
-0.00178767
-0.000580659
-0.000327398
2.35717e-05
0.00013402
2.52881e-05
0.000255691
-0.000104081
0.000229355
-0.00025946
0.00052201
0.00241754
-0.0241678
0.643388
0.479448
0.229149
0.111216
0.0572348
0.0339759
0.0247403
0.0192729
0.0169225
0.014297
0.0121921
0.0109417
0.00912537
0.0087013
0.00785018
0.00734266
0.0139687
-0.0147121
0.579219
0.590519
0.367514
0.233342
0.152475
0.102204
0.0741808
0.0564122
0.0478207
0.0396146
0.0342071
0.0297237
0.0260049
0.0233678
0.0225225
0.0207718
0.0250633
0.00335299
0.448249
0.563695
0.406629
0.303802
0.234164
0.176952
0.136562
0.105929
0.0899238
0.0742445
0.064494
0.0552966
0.0494967
0.0431133
0.0430789
0.0385732
0.0414054
0.0249633
0.33571
0.494953
0.393763
0.316334
0.269199
0.223439
0.185979
0.151288
0.13283
0.111444
0.0983904
0.0843678
0.0769833
0.0659826
0.0674939
0.0595748
0.0614569
0.04875
0.26473
0.435508
0.365387
0.288007
0.254583
0.223919
0.199324
0.17015
0.157715
0.137399
0.12565
0.109687
0.102727
0.087621
0.0918876
0.081713
0.0817108
0.0762432
0.211244
0.379348
0.346217
0.270353
0.23955
0.212542
0.195419
0.168444
0.159793
0.140189
0.131855
0.119284
0.117413
0.102333
0.108926
0.101952
0.0966571
0.101444
0.240583
0.10288
0.0129361
-0.00432431
-0.00380693
-0.0019304
-0.000847309
-0.000159844
0.00035493
3.00754e-05
0.000187961
5.24892e-05
0.000190628
0.000206143
0.000221806
0.0003246
0.00236731
-0.0272399
0.634137
0.478404
0.230217
0.110587
0.0567375
0.0339002
0.0246131
0.0206491
0.0182954
0.0141539
0.0124583
0.0103222
0.00965869
0.00845699
0.00853593
0.0052599
0.0151963
-0.021995
0.569213
0.591604
0.36956
0.231233
0.1503
0.101608
0.0745185
0.0597629
0.0504715
0.0396967
0.0344742
0.0288232
0.0267572
0.023091
0.0233194
0.01626
0.0276014
-0.0052182
0.423309
0.565591
0.411699
0.302628
0.232285
0.177371
0.138564
0.112881
0.0947605
0.0751034
0.0648098
0.0541089
0.0502923
0.0429924
0.043349
0.0321491
0.0438528
0.0148178
0.308822
0.489646
0.388631
0.304056
0.259154
0.220115
0.187679
0.161842
0.140352
0.113607
0.0992807
0.082949
0.0776391
0.0662961
0.0661117
0.0526099
0.0612654
0.0386588
0.2431
0.430995
0.373884
0.289763
0.250186
0.221064
0.200747
0.183484
0.16778
0.140288
0.127035
0.108101
0.103613
0.0901106
0.0876684
0.0754059
0.0782177
0.0628648
0.196036
0.370333
0.345588
0.261632
0.229047
0.208048
0.19622
0.183606
0.174478
0.147573
0.136852
0.117125
0.115458
0.105318
0.101907
0.0954347
0.0933025
0.0853938
0.243625
0.10497
0.0137737
-0.00419444
-0.00367538
-0.00172735
-0.00061979
-0.000126872
-6.06225e-05
-0.000188106
0.000272612
-0.000102355
0.00026232
2.15388e-06
0.000529377
-2.4558e-05
0.00245763
-0.0329426
0.635194
0.47913
0.229718
0.110926
0.057691
0.0343838
0.0246133
0.0197712
0.0162171
0.0132319
0.0126817
0.00978968
0.00977973
0.00752904
0.00922569
0.00305475
0.0158381
-0.0319985
0.562114
0.592717
0.367922
0.231497
0.152329
0.102489
0.073742
0.0570651
0.0460825
0.0379874
0.0348113
0.0279132
0.026988
0.0213508
0.0243618
0.0125821
0.0256876
-0.0132576
0.444865
0.565806
0.406965
0.304073
0.237979
0.181058
0.1383
0.108291
0.0874923
0.0725116
0.0653337
0.0529301
0.0506562
0.0404554
0.0443118
0.027371
0.0386137
0.00948294
0.329219
0.499198
0.388809
0.30796
0.267535
0.225422
0.186663
0.154012
0.129014
0.109787
0.100246
0.0819232
0.0784091
0.0633703
0.06695
0.0465507
0.0537337
0.0340771
0.274717
0.434429
0.365748
0.291718
0.26218
0.23087
0.202279
0.174443
0.15262
0.135022
0.127896
0.106694
0.103726
0.0857296
0.0889546
0.0673386
0.0698889
0.0588474
0.209947
0.385509
0.348021
0.265113
0.236374
0.211536
0.194443
0.173674
0.156934
0.142081
0.140386
0.118436
0.117427
0.0999995
0.101333
0.0825683
0.0816895
0.0781161
0.242976
0.104211
0.013564
-0.00430826
-0.00377285
-0.00195455
-0.000622432
-5.51886e-05
0.000150633
-4.86729e-06
0.000286405
-8.14131e-05
0.000481774
-0.000139143
0.000627581
-0.000207465
0.00203207
-0.032422
0.630398
0.47188
0.224403
0.108203
0.0566323
0.0340939
0.025294
0.0205322
0.0170349
0.013687
0.0125113
0.00985105
0.0104057
0.00729961
0.00955794
0.00332134
0.0149793
-0.0298474
0.567623
0.577448
0.358028
0.227361
0.15075
0.102487
0.0757864
0.0590882
0.0477753
0.0386262
0.0342368
0.027889
0.0276645
0.0208182
0.0245149
0.0129578
0.0248049
-0.0109507
0.419439
0.548681
0.399793
0.300092
0.233432
0.178178
0.139969
0.111273
0.090388
0.0734188
0.0641034
0.0527346
0.0511253
0.0395578
0.0440486
0.0276098
0.0380167
0.0109572
0.303151
0.477711
0.387889
0.314203
0.267924
0.223315
0.189422
0.158303
0.133201
0.110809
0.0976772
0.0811163
0.0782462
0.0619092
0.0662922
0.0460402
0.0536622
0.0339173
0.252131
0.419925
0.358389
0.284233
0.249109
0.220599
0.204687
0.182992
0.162271
0.139155
0.12531
0.105733
0.102999
0.0838196
0.0884886
0.0656758
0.0698934
0.0566838
0.195247
0.372902
0.347316
0.270076
0.233767
0.204193
0.19467
0.177483
0.164919
0.146682
0.136838
0.11806
0.117056
0.0975844
0.102846
0.0815291
0.0834203
0.0748475
0.252915
0.104447
0.012872
-0.00442017
-0.00376752
-0.00181266
-0.000664452
-0.000182037
0.000130772
-0.000341956
0.000267994
-1.76166e-05
0.000328509
0.000161034
0.000549235
0.000270221
0.00223399
-0.0322933
0.621394
0.471987
0.227052
0.110231
0.0571107
0.0341687
0.0245079
0.0197902
0.0169033
0.0128184
0.0128075
0.0101661
0.0100308
0.00792548
0.00895292
0.00314637
0.0146813
-0.0336022
0.57876
0.589513
0.364457
0.229535
0.150145
0.101759
0.0735346
0.0573276
0.0473263
0.0373809
0.0353637
0.0288618
0.0277138
0.0221504
0.0237188
0.012256
0.0234167
-0.0176176
0.414934
0.551277
0.404318
0.302147
0.233184
0.178585
0.13725
0.108683
0.0892353
0.0715257
0.0663798
0.0546642
0.0521803
0.0420656
0.0433001
0.0266817
0.0350188
0.00270025
0.348825
0.488173
0.379247
0.302277
0.261559
0.224614
0.187624
0.156207
0.131744
0.108013
0.101293
0.084243
0.0808848
0.0664239
0.0659703
0.0458939
0.0487809
0.0247403
0.262793
0.432418
0.356883
0.278984
0.249775
0.228122
0.202708
0.177671
0.15646
0.132421
0.129167
0.109799
0.107233
0.0905401
0.0884935
0.0664835
0.0633223
0.0469056
0.223676
0.377743
0.341191
0.264391
0.234297
0.213717
0.19389
0.174067
0.158444
0.135882
0.138744
0.121725
0.124031
0.10888
0.106474
0.0860806
0.0761985
0.0671165
0.253235
0.10492
0.0133498
-0.00437619
-0.00373904
-0.00194078
-0.000911676
-5.74115e-05
0.000424257
-0.000499598
0.00044401
-4.6268e-05
1.47167e-06
0.000153441
0.000905814
-0.000245844
0.00142428
-0.0170243
0.632999
0.477986
0.229809
0.110834
0.0574792
0.0338813
0.0243188
0.0207813
0.0180649
0.0123873
0.0133974
0.0104333
0.00964192
0.00945827
0.01128
0.00511412
0.0157624
-0.00659349
0.568418
0.590698
0.366449
0.230167
0.151242
0.101446
0.0738388
0.0598189
0.049613
0.0368199
0.0362274
0.0292762
0.0269793
0.0254979
0.0278646
0.0162291
0.0322912
0.0113174
0.432828
0.569162
0.416014
0.307344
0.236828
0.178013
0.137312
0.112701
0.0928039
0.0711997
0.0676033
0.0551638
0.0507247
0.0473134
0.0493553
0.032379
0.0521106
0.0337114
0.331753
0.496524
0.391623
0.306864
0.263942
0.220798
0.186043
0.161898
0.137346
0.108917
0.103659
0.0849988
0.0786356
0.072821
0.0736692
0.0525556
0.0733559
0.056312
0.251884
0.432193
0.372604
0.291449
0.258132
0.222262
0.19684
0.182279
0.162868
0.134319
0.133594
0.110739
0.104941
0.0981252
0.0971349
0.0740378
0.0951514
0.0750595
0.181823
0.372151
0.352857
0.26798
0.242046
0.211243
0.190767
0.181159
0.169133
0.141607
0.148128
0.123424
0.120045
0.113639
0.112609
0.0936575
0.11281
0.0880551
0.246184
0.103923
0.0132032
-0.00436959
-0.00355098
-0.00204
-0.000437758
-0.000150823
0.000223235
-4.39899e-05
-0.000260427
0.000396143
0.000217099
-0.000229471
0.000880937
8.88569e-05
0.00188765
-0.0301635
0.627121
0.472999
0.227976
0.110344
0.0577562
0.0334608
0.0254893
0.0199471
0.0171367
0.0132483
0.0109734
0.0113551
0.00957413
0.00688153
0.00997158
0.002482
0.0133525
-0.0316365
0.564249
0.590323
0.365842
0.229796
0.151468
0.100629
0.0756882
0.0577994
0.047934
0.0376752
0.0321012
0.0307055
0.0265754
0.0204972
0.0254045
0.0107397
0.0212612
-0.0152987
0.413976
0.563982
0.410748
0.304489
0.235718
0.176535
0.140323
0.109373
0.0906032
0.0715546
0.0616805
0.057114
0.0500587
0.039572
0.0458718
0.0240108
0.0325649
0.0045497
0.333265
0.499957
0.389726
0.306782
0.263658
0.219161
0.19028
0.156417
0.134565
0.108058
0.0953445
0.0876001
0.0775856
0.062589
0.0693406
0.0416955
0.0461655
0.0265146
0.253118
0.43882
0.373019
0.293444
0.258189
0.224171
0.209224
0.179828
0.16325
0.133368
0.122216
0.114283
0.102842
0.0854058
0.0923056
0.0611856
0.0612268
0.0479432
0.205917
0.38223
0.347667
0.268663
0.237267
0.208351
0.204207
0.178426
0.171493
0.139853
0.132734
0.127933
0.117006
0.10048
0.107023
0.0770202
0.0730953
0.0701316
0.247475
0.104018
0.0127967
-0.00444372
-0.00385477
-0.00196589
-0.000590243
-0.000261789
0.000228944
-0.000243374
7.86562e-05
0.000243898
-0.000160641
2.553e-05
0.000352866
-0.000253461
0.00135906
-0.0282379
0.628768
0.474752
0.225968
0.108767
0.0562343
0.0336569
0.024988
0.0196734
0.0173438
0.0130496
0.0122147
0.0109757
0.00876666
0.008207
0.00939088
0.00423939
0.0132207
-0.0233584
0.545532
0.579305
0.358708
0.225618
0.148061
0.100727
0.0746352
0.0572282
0.0481754
0.037417
0.0340658
0.0297503
0.0253061
0.0227445
0.0247926
0.0146535
0.0235811
-0.00537496
0.426004
0.556918
0.400042
0.297043
0.229709
0.176208
0.138593
0.108577
0.0907695
0.0712101
0.0641965
0.0551574
0.0482604
0.0426486
0.045335
0.0304244
0.0379195
0.0158019
0.316416
0.476735
0.372253
0.297318
0.255764
0.218359
0.187137
0.155042
0.134066
0.107367
0.0981981
0.0839918
0.0749137
0.0662454
0.0689196
0.0502023
0.0548325
0.0383388
0.260695
0.435067
0.359228
0.278282
0.242335
0.219047
0.203009
0.178553
0.161938
0.1318
0.124708
0.10815
0.0986625
0.0889063
0.0922073
0.0714378
0.0717222
0.0603834
0.206984
0.362016
0.336677
0.263056
0.226463
0.204623
0.195014
0.17601
0.167442
0.13623
0.134056
0.118541
0.11158
0.103597
0.10817
0.0904871
0.085389
0.0768643
0.236688
0.101598
0.0123071
-0.004445
-0.00369895
-0.00182984
-0.00059145
-0.000384611
0.000201151
2.76786e-05
-0.000131319
0.000294007
-9.13495e-05
-0.000129482
0.000200934
4.96153e-05
0.00196383
-0.0289627
0.630731
0.471288
0.225925
0.109897
0.0570907
0.0338829
0.0245459
0.0190878
0.0172268
0.0137189
0.0114575
0.0108694
0.00884246
0.00718788
0.00911562
0.00323514
0.0152009
-0.0305792
0.561913
0.586004
0.365099
0.231142
0.151184
0.101471
0.0735175
0.0560755
0.0480168
0.0383398
0.0327689
0.0294175
0.0254202
0.0206523
0.0248388
0.0130236
0.0262071
-0.0134266
0.407446
0.555878
0.404692
0.301681
0.232398
0.176515
0.136124
0.106381
0.0905011
0.0722213
0.0623543
0.0545359
0.0484776
0.0392331
0.0456342
0.0284954
0.0397572
0.0092109
0.307948
0.488418
0.390153
0.311387
0.264297
0.221271
0.184135
0.151884
0.134059
0.10876
0.0962795
0.0835062
0.0755114
0.0615395
0.0689396
0.0488554
0.0547291
0.0347677
0.245694
0.423606
0.359117
0.281203
0.244947
0.218933
0.196369
0.171294
0.160066
0.131959
0.121398
0.107528
0.0999144
0.0834737
0.0913244
0.0712038
0.0692569
0.0592266
0.203275
0.374493
0.347849
0.272365
0.237795
0.216655
0.202061
0.179271
0.173038
0.140831
0.131624
0.117334
0.112546
0.0977073
0.105228
0.0929661
0.0833814
0.0793698
0.246588
0.104149
0.0131778
-0.00418382
-0.00385675
-0.00200512
-0.000650216
-0.000358895
4.61853e-05
0.000201375
7.59119e-06
0.000362892
7.16009e-05
0.000208187
-0.000128729
0.000530758
0.000978331
-0.0305529
0.633948
0.479624
0.230305
0.111299
0.0567631
0.033571
0.0248091
0.0194506
0.0171908
0.0146568
0.0121618
0.0110996
0.00943706
0.00766895
0.0081209
0.00432846
0.0118559
-0.0306228
0.580924
0.594545
0.366748
0.230311
0.149393
0.100721
0.0742459
0.0568997
0.0485045
0.0404778
0.0343915
0.0298836
0.0265742
0.0207749
0.0231592
0.014136
0.0219303
-0.0163502
0.432137
0.569283
0.407596
0.301116
0.231608
0.177702
0.13934
0.108607
0.0921297
0.0762076
0.065456
0.0555982
0.0504974
0.0386661
0.0436441
0.0286112
0.0359085
0.00457633
0.340003
0.50233
0.390345
0.305623
0.258603
0.220059
0.187932
0.154519
0.135878
0.114127
0.10046
0.0852506
0.0787476
0.0599851
0.0670176
0.0473878
0.051837
0.0286861
0.257966
0.42404
0.354101
0.281897
0.252859
0.230529
0.210155
0.179574
0.164779
0.141769
0.129082
0.111787
0.105733
0.081374
0.0894804
0.0680105
0.0661509
0.0544911
0.221616
0.382108
0.346708
0.265265
0.232625
0.215276
0.206095
0.179117
0.168701
0.146044
0.136832
0.122357
0.121022
0.0962083
0.105153
0.0896558
0.0785734
0.0791003
0.251636
0.106275
0.0134904
-0.00410727
-0.00370621
-0.00184011
-0.000502345
-0.000370852
3.93511e-06
0.000179936
-9.63798e-06
0.000233618
-9.1585e-05
0.000220019
-0.00030017
0.000448939
0.0023906
-0.024555
0.64343
0.479412
0.229061
0.111369
0.0571661
0.0338469
0.0249601
0.0191058
0.0168575
0.014402
0.0120558
0.0107943
0.00914453
0.00855389
0.00766986
0.00702933
0.0137263
-0.0152598
0.579342
0.590418
0.367334
0.233641
0.152286
0.102045
0.0745392
0.0560808
0.0477515
0.0397364
0.0339679
0.0294323
0.0260218
0.0230445
0.0221151
0.0202059
0.024324
0.00253488
0.448495
0.563496
0.406325
0.304288
0.233782
0.176788
0.137071
0.105383
0.0898995
0.0743477
0.0641473
0.0548573
0.0494731
0.0426325
0.0423832
0.0377309
0.0402381
0.0236746
0.336129
0.494596
0.3933
0.317059
0.268538
0.223314
0.186691
0.150457
0.132916
0.111517
0.0979172
0.0838202
0.0768611
0.0653773
0.0665346
0.0584354
0.060015
0.0467654
0.265416
0.434957
0.364651
0.289085
0.253566
0.223773
0.200277
0.168967
0.157971
0.137489
0.125043
0.109099
0.102468
0.0868562
0.0907656
0.080204
0.0802112
0.0735353
0.212118
0.37873
0.345041
0.271624
0.238404
0.212421
0.196657
0.166933
0.160168
0.140286
0.131084
0.118707
0.117035
0.101303
0.107814
0.100071
0.0950748
0.0984725
0.240588
0.102882
0.0129311
-0.00430669
-0.00382034
-0.00194444
-0.000820882
-0.000181872
0.000345277
4.26273e-05
0.00015119
5.88485e-05
0.000164768
0.000165713
0.000275717
0.000151434
0.00234726
-0.0271702
0.634162
0.478391
0.230193
0.11065
0.0566715
0.0338698
0.0246814
0.0205618
0.0182673
0.0141749
0.0123237
0.0103193
0.00954182
0.00830092
0.0086044
0.00470584
0.0151147
-0.0220261
0.56927
0.591547
0.369516
0.231353
0.15015
0.101583
0.0746188
0.0595902
0.0504527
0.0397119
0.0342413
0.0288228
0.0265198
0.0228301
0.023363
0.0152847
0.0275117
-0.00539622
0.423433
0.565467
0.411651
0.302832
0.232018
0.177367
0.138699
0.112593
0.0947774
0.075096
0.0644728
0.0541313
0.0498946
0.042668
0.0433527
0.0306822
0.0437914
0.0144678
0.309058
0.48933
0.388538
0.304406
0.258763
0.220135
0.187887
0.161408
0.140424
0.113584
0.0988156
0.0830469
0.0770144
0.0659604
0.0661277
0.0505618
0.0614138
0.0380629
0.24344
0.430618
0.373726
0.290178
0.249666
0.221133
0.201033
0.18288
0.16791
0.14028
0.126401
0.108374
0.10271
0.0897544
0.0878549
0.0726235
0.0786438
0.0619456
0.196553
0.36978
0.345303
0.262229
0.228478
0.208087
0.196629
0.182871
0.174623
0.147652
0.135943
0.117679
0.114293
0.104832
0.102553
0.0918099
0.0940368
0.0839127
0.243615
0.104973
0.0137591
-0.00420463
-0.00364767
-0.00178106
-0.000569894
-0.0001552
-6.6601e-05
-0.000148937
0.000253835
-9.21511e-05
0.00025044
4.99765e-05
0.000448302
2.93371e-05
0.0025591
-0.0332973
0.635164
0.479165
0.229672
0.110882
0.0577618
0.0342417
0.0247537
0.0196837
0.0162076
0.0133529
0.0126075
0.00981563
0.00974932
0.00767299
0.00897522
0.00322116
0.0161241
-0.0332085
0.562066
0.592805
0.367824
0.23143
0.152415
0.102281
0.0739669
0.0568971
0.0460931
0.0381857
0.0346741
0.0279646
0.0269426
0.0215734
0.0239626
0.0128566
0.0261169
-0.0153018
0.444745
0.566014
0.40682
0.304024
0.238028
0.180799
0.138616
0.108012
0.0875348
0.0727883
0.0651096
0.0530043
0.0506122
0.0406908
0.0438153
0.0277626
0.0391338
0.00677132
0.329056
0.499452
0.388587
0.308073
0.267497
0.225113
0.187097
0.15357
0.129108
0.110151
0.0999302
0.0819856
0.0784252
0.0635182
0.0663922
0.0472105
0.0540749
0.0309441
0.27457
0.434768
0.365328
0.29204
0.26204
0.230546
0.202832
0.17381
0.152779
0.135466
0.127566
0.106675
0.103869
0.0857038
0.088219
0.0686419
0.0696648
0.0550932
0.209879
0.385646
0.34756
0.26586
0.235953
0.21129
0.195072
0.172799
0.157185
0.142477
0.140154
0.118293
0.117727
0.0998522
0.100086
0.0850509
0.0810799
0.0727071
0.24296
0.104222
0.0135774
-0.00435173
-0.00370249
-0.00197414
-0.000668802
1.99082e-05
0.000130875
-6.16069e-05
0.000363157
-9.7537e-05
0.000406844
-1.37551e-05
0.000585136
-0.000203394
0.00207313
-0.0322035
0.630342
0.472002
0.22439
0.108058
0.0568653
0.0339942
0.025191
0.0207666
0.0169621
0.0135395
0.0127582
0.00982712
0.0101886
0.00775868
0.00941083
0.00348982
0.0151064
-0.029548
0.567503
0.577754
0.357942
0.227115
0.151154
0.102249
0.0756821
0.0594807
0.0476129
0.0384358
0.0346393
0.0278545
0.0273344
0.0216315
0.0242464
0.0132776
0.0252027
-0.0108164
0.419156
0.549233
0.399634
0.299762
0.234036
0.177744
0.139889
0.111853
0.090089
0.0732353
0.0646582
0.0526794
0.0507399
0.0406686
0.0437375
0.0280322
0.0386922
0.01111
0.302698
0.478668
0.387475
0.313769
0.26882
0.222604
0.189364
0.159106
0.132698
0.110677
0.0983911
0.0809588
0.0779383
0.0631776
0.0660138
0.0466365
0.0544119
0.034301
0.251347
0.421315
0.357982
0.283668
0.250322
0.21962
0.204609
0.184076
0.161477
0.139078
0.126254
0.105307
0.102932
0.0851527
0.0881637
0.0666401
0.0704487
0.0574404
0.194379
0.374637
0.346713
0.269403
0.235278
0.203092
0.194395
0.178897
0.163919
0.146498
0.138101
0.11718
0.11731
0.0989693
0.102401
0.0831942
0.0834795
0.0757778
0.252892
0.104487
0.0128133
-0.0044352
-0.00362754
-0.00202707
-0.000538923
-0.000190697
5.34898e-05
-0.000213469
0.000162132
7.19829e-05
0.000317432
0.000110746
0.000703306
0.000179248
0.00233914
-0.0319507
0.621325
0.47226
0.22669
0.110295
0.0575014
0.0335027
0.0249774
0.019753
0.0166925
0.0132408
0.0124858
0.0104994
0.0100014
0.00789988
0.00943919
0.00307053
0.0150136
-0.0331181
0.578646
0.590195
0.363593
0.229754
0.150722
0.100591
0.0744786
0.0571627
0.0470376
0.0381156
0.034767
0.0295038
0.0276235
0.0222036
0.0245804
0.0122271
0.0242996
-0.0170061
0.414646
0.552655
0.402807
0.302645
0.233929
0.17682
0.138766
0.108295
0.0889055
0.0726004
0.0654551
0.0556518
0.0520318
0.0421657
0.04465
0.0266437
0.0364041
0.00356899
0.348406
0.49046
0.376684
0.303163
0.262408
0.222108
0.189855
0.155475
0.131438
0.109461
0.0999966
0.0855891
0.0807382
0.0664554
0.0679439
0.0457387
0.0506237
0.0256182
0.26182
0.435927
0.353583
0.280323
0.250569
0.224739
0.205629
0.176419
0.156351
0.134242
0.127547
0.111465
0.107127
0.0904397
0.0911976
0.0662136
0.0655701
0.0473952
0.222532
0.382235
0.336975
0.266134
0.235221
0.209836
0.197266
0.172129
0.158724
0.137784
0.137022
0.12378
0.124036
0.10836
0.110029
0.0860288
0.0784766
0.0666577
0.253237
0.104934
0.0133205
-0.00441372
-0.00358054
-0.00210938
-0.000936993
0.000222731
0.000147122
-0.000463195
0.000675657
-0.000293874
7.06927e-05
0.000254393
0.000923161
-0.000333287
0.00150861
-0.0163388
0.633047
0.478127
0.229533
0.110804
0.0579533
0.0333187
0.0243775
0.0216371
0.0171401
0.0126333
0.0140951
0.00968495
0.00992342
0.00998376
0.0113057
0.00522546
0.0162486
-0.00528738
0.568558
0.591092
0.365771
0.2302
0.151963
0.100378
0.0741756
0.0611804
0.0479609
0.0374675
0.0372575
0.028043
0.0275048
0.0264482
0.0279422
0.0164169
0.0336902
0.0131444
0.432976
0.569978
0.414826
0.307548
0.237826
0.176225
0.138088
0.114582
0.0902852
0.0724375
0.0689197
0.0534155
0.0515345
0.0486958
0.0495586
0.032547
0.0541319
0.0364007
0.33206
0.497863
0.389529
0.30738
0.265206
0.217882
0.187499
0.164483
0.133765
0.110901
0.105381
0.0826424
0.0796138
0.074674
0.0741058
0.0524869
0.0754042
0.0601489
0.252067
0.434855
0.369405
0.292281
0.260172
0.217569
0.198664
0.185724
0.157967
0.136889
0.136003
0.108055
0.105893
0.10042
0.0981792
0.0735109
0.0961536
0.0794929
0.181714
0.375734
0.349148
0.268563
0.245053
0.205064
0.192438
0.185909
0.163681
0.143978
0.150825
0.120748
0.120199
0.11619
0.11539
0.0928031
0.111345
0.089667
0.246212
0.103877
0.0132371
-0.0043592
-0.00365822
-0.0018255
-0.00065673
9.03428e-06
0.000260086
-0.000240029
-1.12489e-05
0.000302248
0.000200958
-0.000157064
0.000956709
0.000229736
0.00172815
-0.0281343
0.627265
0.472742
0.228143
0.110312
0.0575254
0.0341405
0.024822
0.0205253
0.0171782
0.0127841
0.0117838
0.0111604
0.00957877
0.00739771
0.0102282
0.00362382
0.0128893
-0.0273779
0.564551
0.589743
0.366236
0.229673
0.151159
0.101785
0.0745379
0.0589373
0.0478038
0.0370716
0.033469
0.0303645
0.0266546
0.0215129
0.0258555
0.0127298
0.021696
-0.00977608
0.414562
0.562814
0.41147
0.304099
0.235397
0.178216
0.138601
0.111282
0.0901401
0.0708956
0.0636585
0.0565213
0.0503081
0.0410683
0.0466754
0.0267017
0.0340637
0.0112778
0.334145
0.49821
0.391083
0.305929
0.263266
0.22132
0.187825
0.159386
0.133648
0.107342
0.0981305
0.0865642
0.0780982
0.0644838
0.0705733
0.0449597
0.0485133
0.0341504
0.254349
0.436151
0.374766
0.292016
0.25826
0.226844
0.206018
0.184068
0.161655
0.132522
0.126003
0.112679
0.10353
0.0876495
0.0938924
0.0650924
0.0639931
0.0552719
0.207065
0.379702
0.350448
0.2656
0.237226
0.210997
0.200189
0.184545
0.16954
0.138647
0.137681
0.126205
0.117528
0.103053
0.108732
0.0811868
0.0774584
0.0740404
0.142796
0.317048
0.324195
0.255809
0.213606
0.187084
0.177441
0.166758
0.165383
0.132913
0.132353
0.114544
0.108178
0.10848
0.111417
0.102816
0.103696
0.1128
0.10819
0.259559
0.285022
0.228791
0.178713
0.159326
0.146686
0.142074
0.156865
0.145564
0.137797
0.12131
0.105524
0.103077
0.108721
0.0997261
0.0866234
0.112798
0.0672068
0.177545
0.220727
0.223548
0.184022
0.157883
0.14626
0.126065
0.124983
0.135624
0.123405
0.100446
0.101377
0.107861
0.0971154
0.0972387
0.082723
0.0909798
0.0546867
0.12119
0.172459
0.183231
0.1431
0.127141
0.13935
0.11629
0.115511
0.136826
0.116012
0.102245
0.109135
0.102238
0.0934013
0.094269
0.0773782
0.0671123
0.00982049
0.0756977
0.143149
0.154279
0.119652
0.114666
0.142187
0.112325
0.0844239
0.0939697
0.0878719
0.0797487
0.0769311
0.0668103
0.0750525
0.0981184
0.0917636
0.0709597
0.025167
0.0638524
0.102412
0.143706
0.141497
0.114782
0.102166
0.0857439
0.0781939
0.0680876
0.0789514
0.102384
0.0778527
0.0632147
0.0730119
0.0797477
0.099027
0.0816206
0.0189078
0.0431701
0.0714204
0.0922541
0.0875376
0.0673023
0.0750391
0.0857496
0.0854161
0.0614535
0.0433727
0.0630004
0.0658577
0.0657852
0.0617521
0.0525016
0.0628838
0.0529146
-0.00954375
0.0108435
0.0405404
0.0513962
0.0616073
0.0584247
0.0759352
0.0759202
0.0544586
0.0497469
0.0653705
0.0743043
0.0606001
0.0483358
0.0251923
0.0177027
0.0353306
0.0385757
0.0352697
0.032333
0.0415472
0.0329773
0.0302198
0.023053
0.0192191
0.0138082
0.0172282
0.0295709
0.0188041
0.0272023
0.0462395
0.0327688
0.0140787
0.0208476
0.0314059
0.0356514
-0.00945478
-0.0201005
-0.0135605
-0.0139473
-0.00523953
-0.00435527
0.00383797
0.0289248
0.0134705
-0.00142764
-0.0062943
0.00831299
0.0194067
-0.00577166
-0.00337637
-0.000615851
-0.0126964
-0.0281132
0.15253
0.31762
0.313765
0.236228
0.196851
0.177647
0.164357
0.148346
0.154211
0.13039
0.129827
0.120579
0.116899
0.106632
0.10152
0.0998597
0.0976477
0.099143
0.0780461
0.231305
0.27426
0.243184
0.2019
0.186573
0.172011
0.149721
0.145417
0.129733
0.116748
0.102662
0.106604
0.106671
0.0961831
0.104845
0.105519
0.10749
0.0774764
0.170298
0.213857
0.206084
0.164144
0.142704
0.140391
0.123275
0.111791
0.123533
0.124941
0.108686
0.109428
0.102254
0.0717726
0.0730677
0.0942223
0.108574
0.0504371
0.117122
0.163397
0.172151
0.151694
0.140112
0.143808
0.130429
0.111884
0.109977
0.0893393
0.0717576
0.0798893
0.0924262
0.0895679
0.0850716
0.0923722
0.104872
0.00366296
0.0983568
0.147994
0.156526
0.133669
0.115896
0.121598
0.115635
0.0938739
0.093655
0.0889619
0.0937373
0.105671
0.0967069
0.0836733
0.0651179
0.0528822
0.0754763
0.0225592
0.0658122
0.102671
0.115818
0.110162
0.0994476
0.100572
0.094521
0.0681725
0.0541735
0.0550823
0.06476
0.0672701
0.059479
0.0581615
0.0611913
0.0651911
0.0780301
0.0527606
0.0412105
0.0599199
0.075232
0.0755798
0.0803297
0.0826583
0.0791309
0.0769807
0.0743412
0.0626486
0.051846
0.0548098
0.0616768
0.0629674
0.0576022
0.0604571
0.0593062
0.00506202
-0.016432
0.0126929
0.0396506
0.0681569
0.0806876
0.0751795
0.0719331
0.0448737
0.0397355
0.0513305
0.0299956
0.0307429
0.03585
0.0261398
0.0251309
0.0359235
0.0431486
0.0248094
-0.000923841
0.0282054
0.0342853
0.0242594
0.0209133
0.0170155
0.041455
0.0502745
0.0487687
0.0416568
0.0292004
0.0458611
0.0369827
0.0236323
0.0269938
0.0292601
0.0237868
-0.00413817
-0.0132183
-0.00873481
-0.00977511
-0.0114705
-0.0102009
-0.0134732
-0.00334938
-0.0141654
-0.00621356
0.00677113
0.00308692
0.0123914
0.00592716
0.00248517
-0.0129985
-0.0297071
-0.0272311
0.170958
0.303786
0.303589
0.247654
0.221678
0.20156
0.194766
0.170165
0.163487
0.144055
0.134057
0.125203
0.121828
0.10302
0.100452
0.0967658
0.0874661
0.101581
0.0958276
0.254852
0.276743
0.236844
0.202097
0.179043
0.172301
0.153645
0.13849
0.13182
0.114347
0.109908
0.112305
0.110002
0.102395
0.1134
0.100464
0.0962544
0.0706658
0.173467
0.220681
0.210481
0.187332
0.160526
0.14307
0.130168
0.120234
0.130722
0.122569
0.108631
0.120621
0.111712
0.0628319
0.0792596
0.0931716
0.0789368
0.0432677
0.124068
0.181345
0.18069
0.171922
0.147174
0.14879
0.133816
0.102994
0.123692
0.117323
0.091837
0.0924904
0.105336
0.0669141
0.081627
0.108574
0.0870574
0.0331502
0.0856993
0.155013
0.16838
0.151989
0.116435
0.107117
0.109787
0.0933184
0.118936
0.101521
0.0705139
0.0753616
0.0835092
0.0776204
0.0808208
0.0700834
0.0640879
0.00124739
0.0462306
0.127431
0.138176
0.114423
0.0888991
0.0918272
0.101477
0.0888267
0.0894718
0.0677054
0.0625712
0.0771711
0.0697154
0.0617166
0.0645741
0.0563585
0.0683451
0.000215614
0.0446187
0.0762796
0.084212
0.0950053
0.0921521
0.0982294
0.0848728
0.0548208
0.0633559
0.0776326