/*--------------------------------*- C++ -*----------------------------------*\
| =========                 |                                                 |
| \\      /  F ield         | OpenFOAM: The Open Source CFD Toolbox           |
|  \\    /   O peration     | Version:  3.0.1                                 |
|   \\  /    A nd           | Web:      www.OpenFOAM.org                      |
|    \\/     M anipulation  |                                                 |
\*---------------------------------------------------------------------------*/
FoamFile
{
    version     2.0;
    format      ascii;
    class       volScalarField;
    location    "0.1";
    object      Uy_mode_3;
}
// * * * * * * * * * * * * * * * * * * * * * * * * * * * * * * * * * * * * * //

dimensions      [0 0 0 0 0 0 0];

internalField   nonuniform List<scalar> 
244500
(
0.11607
0.0614224
0.00845996
-0.00223797
-0.00193884
-0.000230615
-0.000216155
0.000358739
0.000152474
0.000828472
0.000789165
0.000225493
0.00155802
0.000720369
0.00214655
-0.000147515
0.00340625
-0.0103948
0.413763
0.273488
0.13135
0.063761
0.0322884
0.021434
0.0146541
0.0139031
0.0122825
0.0130584
0.012268
0.00985094
0.0140659
0.0108244
0.0152867
0.00612988
0.0186837
-0.0158922
0.378246
0.342612
0.20041
0.126303
0.0832508
0.0603678
0.0420207
0.0371875
0.0328432
0.0327692
0.0308395
0.0262727
0.0329521
0.0278347
0.0337295
0.0235648
0.0357952
0.00694135
0.187216
0.277449
0.21296
0.163842
0.12693
0.10231
0.0748209
0.0656252
0.058721
0.0580089
0.0548553
0.0483859
0.0564996
0.0514177
0.0548644
0.0469308
0.0564273
0.0325231
0.186198
0.302763
0.253463
0.194869
0.159456
0.139612
0.106451
0.093316
0.0837283
0.0838248
0.080441
0.073738
0.0823527
0.0794982
0.0787462
0.0723413
0.0841293
0.0603529
0.135351
0.261472
0.230138
0.18036
0.172261
0.16564
0.123519
0.105916
0.0991634
0.107242
0.103934
0.097569
0.106839
0.106596
0.101179
0.0943298
0.115777
0.0871495
-0.0164015
0.193571
0.204194
0.15174
0.147218
0.152603
0.119334
0.100034
0.0929838
0.117485
0.120598
0.118811
0.132485
0.140021
0.133251
0.116715
0.155313
0.113958
0.12769
0.0584907
0.0102704
-0.00109541
-0.00229201
-0.00167192
-0.000533393
0.000673413
-0.000689996
0.00168533
0.00190418
-0.000807759
0.00272377
0.00173088
-0.000377506
-2.04101e-05
0.000560366
-0.0155728
0.369242
0.2645
0.121694
0.0540468
0.0267407
0.0178847
0.0166623
0.0177461
0.0119999
0.0185641
0.0170527
0.00817254
0.0192292
0.0141904
0.00827818
0.00828094
0.0149723
-0.0172559
0.357449
0.358161
0.197053
0.107369
0.0684998
0.0534971
0.0485118
0.0470204
0.0355257
0.0456491
0.0401254
0.0244758
0.0430038
0.0317037
0.02307
0.0240656
0.0315417
0.00279448
0.240459
0.272259
0.168425
0.11426
0.0966797
0.0909609
0.0881573
0.0848781
0.0679189
0.0817182
0.0701741
0.0464099
0.0728759
0.0539312
0.0415298
0.0458107
0.0519062
0.0290626
0.293768
0.290786
0.200062
0.139681
0.114958
0.111752
0.117163
0.115799
0.0966055
0.118406
0.101807
0.0691139
0.106146
0.0803408
0.060536
0.0722933
0.0767621
0.06043
0.198463
0.254977
0.177862
0.125617
0.117583
0.123017
0.140426
0.144033
0.12489
0.15654
0.134588
0.0883585
0.134663
0.108759
0.0778389
0.0975164
0.108944
0.0916542
0.151135
0.195356
0.162731
0.0975528
0.0747286
0.0812156
0.117022
0.122956
0.108669
0.1636
0.153296
0.105124
0.160352
0.13962
0.0947506
0.114711
0.144384
0.122759
0.118249
0.0560566
0.00841996
-0.00225337
-0.00190667
-0.00144041
-0.000313279
0.00183371
-0.000821692
0.00105711
0.00134059
-0.000781494
0.000335909
0.00245026
0.000341916
-0.00121601
-9.48381e-05
0.00719649
0.310736
0.23047
0.115737
0.0542638
0.0297259
0.0180191
0.0160541
0.0188015
0.0082785
0.0133343
0.0125618
0.00636137
0.0105506
0.018006
0.00906487
0.0113497
0.00579165
0.0246105
0.260473
0.273427
0.177581
0.109814
0.0760076
0.0536189
0.0466108
0.0463085
0.0254464
0.0335189
0.029146
0.0195083
0.0272507
0.0398001
0.0237165
0.0288545
0.0321223
0.0323935
0.154142
0.28359
0.230305
0.158976
0.119182
0.0907092
0.0828355
0.0805303
0.0490071
0.0610444
0.0510283
0.0362232
0.0500758
0.0647924
0.0450853
0.0467916
0.0679085
0.0529184
0.1507
0.280167
0.230662
0.162166
0.134296
0.112651
0.112904
0.110426
0.0692395
0.0895196
0.076024
0.051927
0.0777112
0.0915482
0.0714214
0.0656202
0.104663
0.0890388
0.173254
0.313157
0.241064
0.135766
0.101287
0.0853424
0.108167
0.122496
0.0841117
0.118019
0.103759
0.0597122
0.0982798
0.113924
0.0953022
0.0873219
0.136239
0.136296
0.113659
0.239599
0.194589
0.127006
0.123949
0.0995216
0.117653
0.109452
0.0596889
0.114552
0.123913
0.0695017
0.121707
0.141589
0.112752
0.107307
0.15354
0.171626
0.11462
0.0479812
0.00497823
-0.00321951
-0.00194308
-0.00188345
-0.000281892
0.000830169
0.000773133
0.000942664
-9.8201e-05
0.000634384
-0.000237597
0.00095963
0.00132279
-0.00145634
0.00397257
0.00532692
0.338251
0.241473
0.121865
0.0615753
0.0324666
0.0178482
0.016208
0.01726
0.0137448
0.0133936
0.00836484
0.0112313
0.00870597
0.0145526
0.0155667
0.0107423
0.0220148
0.0366019
0.260774
0.275988
0.180544
0.116742
0.0742027
0.050366
0.0454903
0.0446861
0.0342722
0.0328042
0.021887
0.0265736
0.0227855
0.0329675
0.03641
0.0281047
0.0534347
0.0589593
0.170166
0.287557
0.232996
0.169813
0.121133
0.094651
0.0868853
0.0839765
0.0631435
0.058155
0.0408211
0.0448292
0.0424382
0.0527417
0.0638748
0.0455312
0.0913337
0.0870099
0.184492
0.186219
0.153816
0.116751
0.0981609
0.103425
0.115221
0.119397
0.0921646
0.0822308
0.062605
0.0617759
0.0659932
0.0718965
0.0939564
0.0617395
0.127692
0.124638
0.235279
0.263822
0.220086
0.167969
0.129885
0.126583
0.139355
0.14555
0.119505
0.0998225
0.0834817
0.0731651
0.0868207
0.0902775
0.120521
0.0803369
0.154649
0.169821
0.06103
0.118646
0.132936
0.101283
0.0762877
0.0924658
0.125408
0.129694
0.120764
0.0984166
0.0991386
0.0817125
0.103439
0.101341
0.135762
0.0955198
0.163692
0.223516
0.132268
0.0504293
0.00363148
-0.00382226
-0.00143238
-0.000366714
0.000801555
-0.000530961
-0.00154421
0.000109868
0.000922428
0.00148038
0.000581497
0.00202933
0.000944767
0.00237565
-0.000500673
-0.0152834
0.332597
0.237735
0.117003
0.0642219
0.0374172
0.0215672
0.0157389
0.00800512
0.00516839
0.0111967
0.0147236
0.014372
0.012893
0.0129153
0.014741
0.00700287
0.0136011
-0.015652
0.265451
0.278085
0.180107
0.131141
0.0928112
0.0592408
0.0407701
0.0233397
0.0194836
0.0300825
0.0373441
0.0335684
0.0333107
0.0274904
0.036625
0.0182068
0.0260225
0.00551652
0.235869
0.272479
0.220418
0.197077
0.159448
0.110959
0.0763498
0.0442168
0.0389597
0.0542848
0.0670249
0.0576523
0.0601884
0.0453108
0.0616786
0.0356385
0.0351435
0.0393746
0.136874
0.199038
0.17463
0.192188
0.182434
0.142611
0.108474
0.0665052
0.0623091
0.0822056
0.101373
0.0848053
0.0898563
0.0673087
0.0859512
0.0586167
0.042769
0.0752932
0.148367
0.191431
0.179814
0.216097
0.212782
0.158963
0.114186
0.0574305
0.0587877
0.0929103
0.129043
0.109801
0.116404
0.0884923
0.109853
0.0818844
0.0502238
0.10495
0.162777
0.141082
0.180599
0.212069
0.194482
0.151322
0.13205
0.0732672
0.0672247
0.0925484
0.139265
0.122668
0.13273
0.104871
0.124207
0.105872
0.0630273
0.110416
0.166886
0.0654683
0.00750688
-0.00259497
-0.00264087
-0.000655177
-0.000423589
-0.000191192
0.000112793
1.79359e-05
0.000690615
0.00144787
0.00119114
0.00167822
0.00084102
0.00111013
0.000893487
-0.00554839
0.258795
0.225544
0.118131
0.0575506
0.0277816
0.0192194
0.0134583
0.0124312
0.0127184
0.0119904
0.0142116
0.0157595
0.0149645
0.0159731
0.0133679
0.015122
0.013351
0.0050885
0.280004
0.290067
0.19598
0.121144
0.0761427
0.0564858
0.0397402
0.0351674
0.0343001
0.0321903
0.0363581
0.0373065
0.0361516
0.0366385
0.0324489
0.0347213
0.0335259
0.0215673
0.114038
0.2643
0.212163
0.143517
0.106386
0.091096
0.0689197
0.0630154
0.0623005
0.0583997
0.0655532
0.0643564
0.0634247
0.0615485
0.0570386
0.0585915
0.0589603
0.0437091
0.128673
0.246404
0.227644
0.171462
0.142833
0.128407
0.0973986
0.0878985
0.0886012
0.0829382
0.0960488
0.0927582
0.0945916
0.0892359
0.0852181
0.086388
0.0857452
0.0703617
0.0986802
0.202867
0.209586
0.155166
0.135533
0.124691
0.0937596
0.0917726
0.105265
0.10258
0.124264
0.114704
0.119944
0.112952
0.109083
0.115723
0.113933
0.0994064
-0.0103188
0.107636
0.158312
0.120577
0.135744
0.158807
0.134147
0.113987
0.120375
0.106091
0.140675
0.138733
0.152705
0.14778
0.139025
0.14477
0.139964
0.137892
0.107203
0.048348
0.00525262
-0.00292505
-0.00167428
-0.000386748
-0.000193563
8.45088e-05
0.000120419
0.000641902
0.000409593
0.000486325
0.000619663
0.00100666
0.000866626
0.000826238
0.00330253
-0.00441207
0.33625
0.250901
0.127101
0.0631794
0.0340113
0.020089
0.0135348
0.0113677
0.0105597
0.011072
0.00996392
0.00953082
0.0109009
0.0119086
0.0116549
0.0132377
0.0164972
0.00683713
0.310682
0.319815
0.188091
0.116568
0.0801649
0.0538026
0.0380697
0.0314634
0.0286854
0.0282011
0.0256358
0.0237849
0.0267781
0.0285876
0.0279997
0.0330866
0.0358548
0.0243278
0.289578
0.313593
0.221343
0.170776
0.136862
0.0977924
0.0705717
0.058148
0.0530077
0.0511041
0.0469226
0.0426222
0.0469721
0.0491337
0.0484095
0.0572566
0.0607262
0.0437205
0.263441
0.285496
0.17984
0.130694
0.121668
0.10192
0.0874084
0.0809711
0.0777172
0.075512
0.070203
0.0629941
0.069438
0.0699639
0.0702149
0.0834829
0.0880041
0.0659564
0.139171
0.239611
0.213482
0.166145
0.142255
0.104532
0.0840238
0.0838277
0.0925701
0.0993745
0.0988574
0.0873979
0.0967148
0.093324
0.0894772
0.10907
0.119038
0.0889619
0.1538
0.237734
0.203486
0.122495
0.0991441
0.0808013
0.072355
0.0739648
0.0879702
0.10054
0.108073
0.0954652
0.109192
0.106468
0.101616
0.121852
0.141605
0.136594
0.145722
0.049987
0.00640995
-0.00249114
-0.00201435
-0.00121678
-0.000214818
-9.77261e-05
-0.000535086
0.00184855
0.000374592
0.000456034
0.00179371
-0.00057599
0.000189228
0.00183231
-0.000742196
0.00217892
0.358302
0.263103
0.134768
0.0641005
0.0327228
0.019336
0.0161846
0.013102
0.0109666
0.0168289
0.0112151
0.0109767
0.0144548
0.00833218
0.0113247
0.0194186
0.00544958
0.00754086
0.336741
0.366797
0.21604
0.12275
0.0790491
0.0540079
0.0452011
0.0364252
0.0322042
0.0397243
0.02873
0.0276424
0.0314941
0.0225231
0.028477
0.0434908
0.02325
0.0223498
0.225397
0.375075
0.26297
0.177714
0.132169
0.0962603
0.0812806
0.0657076
0.0601152
0.0686688
0.0514377
0.049607
0.0518051
0.039353
0.0504786
0.0699943
0.049999
0.0399238
0.123485
0.268891
0.231558
0.176789
0.142686
0.110113
0.105552
0.0937128
0.092536
0.103117
0.0785239
0.0770737
0.075474
0.0558257
0.0761718
0.0948928
0.0800005
0.0638503
0.147925
0.242598
0.233627
0.187821
0.155018
0.118446
0.115902
0.100505
0.106458
0.123517
0.0936741
0.0980319
0.095961
0.0648827
0.0998047
0.121287
0.108648
0.0869744
0.0854873
0.217135
0.225656
0.170028
0.140017
0.134726
0.170805
0.151827
0.146111
0.155611
0.113894
0.123521
0.12131
0.0703626
0.109791
0.134487
0.131219
0.112341
0.158952
0.0627362
0.0083807
-0.00220095
-0.0022712
-0.000714934
0.0006855
0.00017167
-0.000875928
0.00299512
-0.00228651
0.00187942
0.000704543
-0.000177813
-0.0028215
0.00492322
-0.0055277
-0.0437759
0.255306
0.222682
0.116847
0.057645
0.0295706
0.0200132
0.0168867
0.0118198
0.00834565
0.0188214
0.00292618
0.0150661
0.0112909
0.0074715
0.0047287
0.0271944
-0.0227094
-0.0196152
0.258655
0.291989
0.189042
0.12179
0.0808374
0.0597178
0.0470448
0.0324258
0.0262578
0.0405936
0.0148518
0.0347836
0.0279235
0.020062
0.0210697
0.0570389
-0.0352491
-0.00627177
0.110274
0.279467
0.200532
0.150761
0.120281
0.10226
0.0855984
0.0587969
0.0505977
0.0657349
0.0317046
0.0595241
0.0499671
0.0351894
0.0467347
0.0881738
-0.0282952
0.010076
0.09783
0.224771
0.188576
0.163509
0.144534
0.139418
0.128367
0.0916977
0.0817713
0.0924434
0.048216
0.0870026
0.0719541
0.0500515
0.0799555
0.119766
-0.0111747
0.0510475
0.125702
0.269267
0.202937
0.143505
0.112776
0.136786
0.147141
0.105148
0.103609
0.117566
0.0590087
0.12021
0.0912624
0.054293
0.113876
0.153748
-0.00138707
0.11835
0.176311
0.255824
0.161507
0.116158
0.0875694
0.14452
0.191072
0.14287
0.114172
0.115933
0.0395436
0.135465
0.108353
0.0662653
0.141286
0.18
0.0219268
0.188731
0.148797
0.0478257
0.00343353
-0.00304265
-0.00158938
-0.000472533
-0.00126817
0.000635595
-0.00157025
0.00164053
3.91808e-05
-0.00156901
0.00151718
-0.000175079
-0.00150658
0.000817916
-0.00664868
0.0285766
0.368701
0.236687
0.118009
0.0630522
0.0337807
0.019793
0.0105035
0.0136167
0.00652274
0.0154333
0.00956673
0.00526423
0.016369
0.0117511
0.0115641
0.0262324
-0.00275906
0.075183
0.324319
0.277943
0.188016
0.13321
0.0871361
0.0554231
0.0336553
0.0348961
0.0220301
0.0355494
0.0244248
0.018358
0.037239
0.0295149
0.0320299
0.055996
0.0301812
0.0885575
0.290328
0.279767
0.22707
0.191365
0.143106
0.0993168
0.0654624
0.0630656
0.0444358
0.0618132
0.0432705
0.03651
0.0626521
0.0524497
0.0589165
0.0890582
0.0746924
0.118667
0.0716419
0.18882
0.223746
0.199678
0.149498
0.107547
0.0793512
0.0824249
0.063676
0.0905195
0.0624355
0.0576066
0.0894186
0.0777363
0.0900388
0.12146
0.123256
0.164297
0.101378
0.150466
0.193491
0.196961
0.179906
0.139827
0.105126
0.101085
0.074736
0.117156
0.0753819
0.0760482
0.112348
0.0993706
0.122382
0.147847
0.162647
0.228551
0.0309774
0.129855
0.168018
0.146501
0.125624
0.0979961
0.0883722
0.0917649
0.0693871
0.141038
0.0883131
0.097379
0.133315
0.115582
0.162148
0.17743
0.190329
0.285095
0.11607
0.0613704
0.00859614
-0.00237542
-0.00187669
-8.06299e-05
-0.000521261
0.000686163
-6.88624e-07
0.000740561
0.00126196
-0.00026307
0.00192842
0.000633084
0.00202763
0.000389251
0.00343978
-0.00456111
0.413666
0.273286
0.132005
0.0632176
0.0325502
0.0217911
0.0137403
0.0150172
0.0118046
0.0130373
0.0137164
0.00862228
0.0153644
0.0113624
0.0149844
0.00951248
0.0196602
-0.00987396
0.377845
0.342188
0.201775
0.125335
0.0838572
0.0607368
0.0405515
0.0391834
0.0318576
0.0330974
0.0330528
0.0245226
0.0351963
0.029252
0.0332345
0.0297438
0.0400977
0.0131053
0.186524
0.276851
0.214942
0.162255
0.128176
0.102577
0.0728357
0.0686515
0.0569764
0.0589993
0.0576741
0.0462198
0.0598611
0.0535426
0.0545492
0.055175
0.0651245
0.0397045
0.184544
0.302121
0.256878
0.192865
0.161783
0.139361
0.10387
0.0974459
0.0808517
0.0856973
0.083836
0.0708382
0.0874816
0.0817653
0.0787094
0.0825876
0.0962594
0.070754
0.133537
0.260806
0.232927
0.177678
0.177003
0.164572
0.120919
0.111384
0.0943301
0.110141
0.108302
0.0930472
0.114115
0.109283
0.100718
0.106363
0.130936
0.104177
-0.0204279
0.193287
0.209139
0.147768
0.154573
0.14985
0.115711
0.107273
0.0865591
0.120465
0.126098
0.113171
0.141779
0.143075
0.13182
0.129939
0.171514
0.144766
0.127708
0.0584886
0.0102577
-0.00112071
-0.00226631
-0.00160238
-0.000726275
0.000833205
-0.000521857
0.00107871
0.00257162
-0.000944406
0.00241032
0.00226937
-0.000373273
-0.000113368
0.000470153
-0.0104599
0.369307
0.264589
0.121564
0.0540343
0.0268911
0.0180221
0.0161833
0.0183842
0.0124155
0.0170057
0.0192331
0.00796996
0.0183321
0.0168069
0.00807015
0.0101481
0.0159897
-0.00756287
0.357622
0.35839
0.196758
0.1074
0.0688297
0.0535574
0.0478296
0.0482679
0.0359095
0.04346
0.0437775
0.0242302
0.0413729
0.0368541
0.022163
0.0277667
0.0359318
0.0153915
0.240611
0.272916
0.167914
0.114272
0.0972749
0.0907341
0.0872494
0.0870051
0.0678682
0.0791525
0.0752649
0.0462325
0.0704097
0.0618262
0.0402667
0.050596
0.0611286
0.044163
0.293764
0.291798
0.199258
0.139919
0.116111
0.110937
0.115718
0.119187
0.0957595
0.115517
0.108487
0.0688992
0.102962
0.0905084
0.0596439
0.0772569
0.0901464
0.0803508
0.197923
0.257436
0.176312
0.125079
0.119758
0.12173
0.138145
0.14939
0.122672
0.152801
0.143302
0.0877537
0.131358
0.120538
0.0777932
0.102388
0.123984
0.117676
0.149848
0.19797
0.162548
0.0972888
0.0774369
0.0792392
0.112516
0.130581
0.106516
0.157728
0.163825
0.104908
0.156353
0.151379
0.0976261
0.120571
0.155803
0.154867
0.118262
0.0560181
0.00855614
-0.00239576
-0.00188996
-0.00121171
-0.00074193
0.00224506
-0.000900832
0.000801116
0.00170337
-0.000708033
0.000250409
0.00218887
0.000861495
-0.000963866
-0.000610318
0.0101752
0.310683
0.230395
0.116324
0.0536845
0.0299421
0.0185515
0.0148536
0.0201305
0.00800679
0.0127582
0.0138094
0.00670754
0.0101173
0.0177938
0.010891
0.0127769
0.00436725
0.029277
0.260261
0.273387
0.17875
0.108667
0.0765928
0.0541927
0.0447425
0.0486796
0.0247336
0.0329317
0.0312215
0.0200804
0.0264379
0.0397636
0.0269628
0.0309661
0.0315404
0.0385038
0.153561
0.283632
0.232182
0.157058
0.120438
0.0910984
0.0802831
0.0842018
0.0475042
0.0606532
0.0540869
0.0370263
0.0488777
0.0647653
0.0501408
0.0495169
0.0678215
0.061317
0.149379
0.280812
0.233761
0.158978
0.136495
0.112499
0.109607
0.115805
0.0664821
0.0891672
0.0803743
0.0532343
0.0762065
0.0909429
0.0784221
0.0697405
0.10394
0.0976877
0.171058
0.313888
0.245523
0.131387
0.105318
0.0843328
0.10366
0.129782
0.080153
0.117216
0.109097
0.0623404
0.0968979
0.112303
0.103115
0.0940306
0.136333
0.140424
0.109871
0.24038
0.201796
0.121418
0.12916
0.0969307
0.112556
0.118593
0.0544822
0.113359
0.129296
0.0741336
0.121096
0.138686
0.120219
0.116883
0.159666
0.166303
0.114622
0.0479538
0.00502521
-0.00326452
-0.00203974
-0.00158547
-0.00069457
0.00114301
0.000789619
0.000577433
0.000322623
0.000472331
-0.000180497
0.000940677
0.00143369
-0.00113688
0.0035629
0.00731604
0.338232
0.241415
0.122066
0.0612916
0.0323468
0.0186208
0.015014
0.0183241
0.0136598
0.0124225
0.00970229
0.0109282
0.00885598
0.0147976
0.0160784
0.0120928
0.0207997
0.0401408
0.260713
0.275881
0.180998
0.116105
0.0742592
0.0514706
0.0435256
0.046712
0.0338031
0.031468
0.0240978
0.0261018
0.0231292
0.0334421
0.037456
0.0303449
0.0521399
0.0635729
0.170056
0.287335
0.233888
0.168638
0.121569
0.0959831
0.0840856
0.0872782
0.0619823
0.0566543
0.0439244
0.0441215
0.0431752
0.0533254
0.0656246
0.0484463
0.0901213
0.0927782
0.184203
0.1859
0.155346
0.114864
0.099465
0.104912
0.111175
0.124404
0.0899493
0.0806209
0.0667132
0.0606921
0.0674412
0.0723381
0.0963955
0.0653616
0.126333
0.132181
0.234653
0.263598
0.222766
0.164211
0.131919
0.128708
0.13409
0.152689
0.115852
0.0980254
0.0883524
0.0714044
0.0895012
0.0904681
0.123486
0.0845367
0.153277
0.179473
0.0604733
0.117288
0.137216
0.097204
0.0792767
0.0942732
0.118107
0.139469
0.115755
0.0966633
0.105116
0.0789349
0.107309
0.1015
0.138735
0.0998077
0.162649
0.238616
0.132288
0.0504161
0.00363519
-0.00379324
-0.0015519
-0.000150417
0.000629593
-0.000508406
-0.00134984
-8.651e-05
0.00104848
0.00150967
0.000757835
0.00178374
0.00100477
0.00326867
-0.000990506
-0.0159296
0.332639
0.237717
0.117044
0.064226
0.0371473
0.0222371
0.0152007
0.00812699
0.00572887
0.0105824
0.0151398
0.0145079
0.0133689
0.0121556
0.015205
0.00901624
0.0111628
-0.0158367
0.265524
0.278106
0.180244
0.131051
0.0924537
0.0603707
0.0398388
0.0236725
0.0203078
0.0290604
0.0381116
0.0337506
0.0341159
0.0262315
0.0376872
0.021417
0.0212453
0.00589598
0.235902
0.27256
0.220697
0.196792
0.15904
0.112574
0.0749658
0.0448778
0.0400053
0.0528265
0.0681485
0.0578648
0.0612689
0.0435389
0.0633021
0.0403989
0.0282258
0.040041
0.136835
0.199245
0.175225
0.191505
0.181884
0.144905
0.10642
0.0675239
0.0636332
0.0802919
0.102718
0.0851148
0.0912385
0.0649695
0.0879327
0.0650499
0.0334888
0.075995
0.148181
0.191538
0.18124
0.215151
0.21177
0.161762
0.111639
0.0590047
0.060267
0.0908006
0.130437
0.110014
0.118127
0.0857039
0.11198
0.0897444
0.0391006
0.106812
0.162679
0.140459
0.182643
0.210937
0.193564
0.155046
0.12821
0.0751388
0.0690633
0.0903267
0.140579
0.123134
0.134821
0.101279
0.126318
0.115278
0.0502276
0.116334
0.166888
0.0654751
0.00756927
-0.00266405
-0.00262639
-0.00051934
-0.000619147
-7.35898e-05
0.000123784
-4.09579e-05
0.000532533
0.00166928
0.00114268
0.00137926
0.0012188
0.000988234
0.000795554
-0.00575174
0.258768
0.225599
0.11833
0.0573221
0.0279305
0.0195259
0.0129043
0.0128018
0.0127718
0.0117107
0.0137925
0.0165317
0.0147139
0.0150855
0.0146611
0.0146729
0.0130776
0.00547756
0.279874
0.290164
0.196387
0.120693
0.0765445
0.0568463
0.0388747
0.0358421
0.034317
0.0316601
0.0357089
0.0386672
0.0356121
0.0352439
0.0347396
0.0336726
0.0330899
0.0226736
0.113747
0.264449
0.212819
0.14266
0.107247
0.0914432
0.0677115
0.0640686
0.0622627
0.0575413
0.0647117
0.0663452
0.0625452
0.0596874
0.0604779
0.0567969
0.0578656
0.0465844
0.128001
0.246765
0.228649
0.169779
0.144349
0.128785
0.0958127
0.0893744
0.0885654
0.0816429
0.0948966
0.0956068
0.0932609
0.0868817
0.0899054
0.0839858
0.083057
0.0769341
0.0977046
0.203474
0.211315
0.152676
0.137632
0.124809
0.0919642
0.093692
0.105384
0.10086
0.12229
0.118591
0.118205
0.11021
0.114976
0.1129
0.108693
0.110936
-0.0120144
0.108653
0.161001
0.116645
0.138898
0.159187
0.132092
0.115851
0.121007
0.104241
0.137286
0.144097
0.150085
0.144259
0.146975
0.14182
0.130914
0.151895
0.107199
0.0483538
0.00515617
-0.00287
-0.00160081
-0.000645357
6.09666e-05
-5.56966e-05
0.000101539
0.000858053
4.6889e-05
0.000737099
0.000711883
0.000534152
0.00122509
0.000768052
0.00331504
-0.00512806
0.336348
0.250935
0.126591
0.0634488
0.0341577
0.0193823
0.0143105
0.0109255
0.0105327
0.0116369
0.00885238
0.0102641
0.0110216
0.0103858
0.0128621
0.0126836
0.0162794
0.00562987
0.310975
0.319982
0.187011
0.117106
0.0802311
0.0527228
0.0393812
0.0306056
0.0288087
0.0290022
0.0237795
0.0250453
0.0266957
0.0260624
0.0301509
0.0318801
0.0351824
0.0229947
0.290274
0.314061
0.219443
0.171706
0.136678
0.0963927
0.072471
0.0567196
0.0534695
0.051971
0.0443669
0.0445619
0.0463845
0.0457135
0.0514716
0.0552765
0.059556
0.042075
0.26458
0.286102
0.177074
0.13231
0.120739
0.100145
0.090116
0.0788135
0.0788468
0.0762509
0.0669492
0.066018
0.0679219
0.0658718
0.0741467
0.0805871
0.0864413
0.0642211
0.140991
0.241118
0.209032
0.168553
0.14059
0.102342
0.0873468
0.0805605
0.0949432
0.0998814
0.0948625
0.0922053
0.0936729
0.0887091
0.094519
0.105082
0.117083
0.086503
0.155464
0.239879
0.198537
0.125411
0.0959044
0.0786096
0.0767906
0.0691242
0.0920918
0.100611
0.102755
0.103399
0.10441
0.100778
0.107987
0.116886
0.139656
0.13197
0.145747
0.0499561
0.00641656
-0.00243964
-0.00208237
-0.00111178
-0.000249273
-5.10472e-05
-0.000495325
0.00175033
0.000569348
0.000172007
0.00200246
-0.000612429
-0.000281717
0.00241717
-0.0010683
0.000755325
0.358451
0.262858
0.134825
0.064229
0.0324881
0.0196518
0.0160017
0.0132874
0.0110364
0.0164591
0.0117534
0.0100024
0.0150964
0.00791667
0.00998439
0.0208313
0.00402122
0.00550042
0.337107
0.366182
0.216248
0.122963
0.0786211
0.0545989
0.0447393
0.0368265
0.0323026
0.0390472
0.0296411
0.0259292
0.0325884
0.0216061
0.0262625
0.0455956
0.019885
0.0193657
0.226245
0.373685
0.263314
0.178009
0.131541
0.0972377
0.0804736
0.0663979
0.0602177
0.0676951
0.0527434
0.0471559
0.0532008
0.0380105
0.0472475
0.0726825
0.0452317
0.0354897
0.124905
0.266669
0.232243
0.177063
0.141698
0.111571
0.104349
0.0949349
0.0924864
0.101855
0.0802694
0.0739702
0.0769141
0.0541671
0.0718912
0.0980713
0.0739661
0.059459
0.150578
0.239317
0.234051
0.188146
0.154156
0.120374
0.113697
0.102821
0.106234
0.121834
0.0957354
0.0945042
0.0972337
0.0628066
0.0945748
0.125041
0.100234
0.0843175
0.0886863
0.213707
0.226301
0.169165
0.138666
0.137982
0.167689
0.154782
0.145508
0.154394
0.116301
0.119622
0.12231
0.0684351
0.102514
0.139192
0.12181
0.10927
0.158902
0.0627757
0.00834474
-0.00218666
-0.00226533
-0.000798284
0.000875918
-0.00023454
-0.000614861
0.00314563
-0.00276784
0.0020731
0.000877023
-0.000400206
-0.0033355
0.00548239
-0.00551179
-0.047119
0.255181
0.222924
0.116601
0.0576725
0.0295624
0.019809
0.0173671
0.0106032
0.00929996
0.0190269
0.00141759
0.0157054
0.0117842
0.00627271
0.003384
0.028293
-0.0231779
-0.0272695
0.258417
0.292545
0.188479
0.121836
0.0807974
0.0595136
0.0476893
0.030392
0.028163
0.0405241
0.0124358
0.0359444
0.0286848
0.0178079
0.0190284
0.0589794
-0.037306
-0.0172095
0.109944
0.280457
0.199515
0.150839
0.120051
0.102258
0.0863082
0.0557538
0.0538058
0.0652022
0.0283217
0.0613221
0.0509795
0.0316974
0.0441114
0.0912163
-0.0310523
-0.00454536
0.0970852
0.226705
0.187239
0.163387
0.143835
0.140069
0.129058
0.0871884
0.086682
0.0915002
0.0435159
0.0895291
0.0736418
0.0449241
0.0767642
0.124499
-0.0130608
0.03234
0.124794
0.270848
0.202046
0.143944
0.110149
0.13861
0.148306
0.098647
0.11074
0.116801
0.0526365
0.122951
0.0943108
0.0471008
0.109448
0.160727
-0.000527637
0.0973687
0.175501
0.258465
0.159416
0.117266
0.0836603
0.147466
0.193457
0.133318
0.121609
0.117497
0.032192
0.136744
0.115032
0.0571215
0.132327
0.189075
0.0287058
0.174593
0.148741
0.0479666
0.0033048
-0.00300078
-0.00140559
-0.00102478
-0.000581729
-3.31324e-06
-0.00146075
0.00218718
-0.000968117
-0.000836238
0.00134475
-0.000732998
-0.00115552
0.000280606
-0.00612861
0.0226514
0.368456
0.237418
0.117295
0.0633296
0.0340755
0.0181539
0.012572
0.0115615
0.00708838
0.0167014
0.00651073
0.00743653
0.0155959
0.00971712
0.0129374
0.0231062
-0.000717304
0.0613036
0.323841
0.279577
0.186381
0.133822
0.0873024
0.0527913
0.0371343
0.0311427
0.0235814
0.0370747
0.0194757
0.0221762
0.0354857
0.0262147
0.0345754
0.0503645
0.0312364
0.0693879
0.289276
0.282928
0.224297
0.192838
0.142782
0.0957087
0.0705312
0.0570555
0.0475812
0.0631803
0.0363937
0.0423873
0.0593538
0.0480834
0.0624729
0.0810621
0.0744089
0.0948356
0.0703415
0.193567
0.218815
0.202336
0.148361
0.103297
0.0864679
0.0731592
0.0690837
0.0915502
0.0531272
0.0664456
0.083832
0.0723938
0.0947992
0.111194
0.12149
0.136736
0.0992579
0.157516
0.18818
0.201527
0.175838
0.134607
0.114564
0.0879242
0.08323
0.11777
0.0630939
0.088859
0.104182
0.0927511
0.129263
0.134767
0.159412
0.198665
0.0296992
0.136382
0.159852
0.155315
0.119509
0.0936264
0.100001
0.0723049
0.0818169
0.141921
0.0712918
0.114578
0.123228
0.105079
0.173626
0.165104
0.180674
0.257788
0.163534
0.24026
0.233847
0.187157
0.18271
0.158907
0.1114
0.0983138
0.0824391
0.099842
0.102268
0.095238
0.128549
0.140216
0.132134
0.123033
0.170897
0.161889
-0.141128
0.0673196
0.183055
0.186716
0.173922
0.106839
0.0947285
0.0634633
0.0305261
0.069293
0.145772
0.151095
0.146739
0.211284
0.128977
0.137056
0.277424
0.161004
-0.033645
0.0697895
0.154833
0.141514
0.182396
0.121997
0.0657024
0.122272
0.1063
0.0457915
0.122684
0.14703
0.0629754
0.141649
0.156068
0.0763084
0.256819
0.313887
0.21618
0.221944
0.174118
0.0995904
0.165243
0.170531
0.0763263
0.0631946
0.0202118
-0.00261189
0.116973
0.0865628
-0.0554306
0.0968178
0.243128
0.161456
0.258237
0.424716
0.107853
0.0404536
0.0104074
0.0356265
0.150852
0.122549
-0.0114209
0.0814173
0.132587
0.0805177
0.143673
0.205837
0.10974
0.103553
0.146714
0.0528604
0.175521
0.351297
0.0756654
0.0489199
0.0917518
-0.0654535
-0.0595133
0.065064
0.116299
0.150579
0.1026
0.122694
0.103598
0.0209131
0.0389851
0.0903558
0.1867
0.232113
0.165659
0.202653
-0.0150731
-0.0642411
0.0058205
0.0255564
0.0953118
0.152895
0.108346
0.0801468
0.0361979
0.089337
0.145743
0.050699
0.00272235
0.0259392
0.0339719
0.16643
0.37634
0.426905
0.123885
-0.0193852
-0.114459
-0.0662667
0.078295
0.209371
0.142454
0.0337689
0.0100434
-0.0197302
-0.0287125
0.0671101
0.120774
0.125015
0.209081
0.231078
0.225104
0.282841
-0.0904007
-0.123342
-0.151205
-0.0924674
-0.0949684
-0.065669
0.0212465
0.0649544
0.0624354
0.0379781
0.0699241
0.112298
0.109501
0.190247
0.214593
0.177394
0.158962
0.158748
0.200567
0.130772
0.0736679
0.0415135
-0.0835819
-0.0812968
-0.00949322
-0.0211165
0.0513061
0.0972567
0.0889942
0.0696523
0.0081244
0.0186076
0.0287759
0.0592886
0.129255
0.231683
0.147322
0.164384
0.144376
0.159398
0.173068
0.133927
0.158072
0.149528
0.0994175
0.147475
0.158473
0.0850578
0.13557
0.183556
0.133046
0.12003
0.189098
0.171567
0.242423
0.207901
0.129728
0.0799316
0.0723043
0.00283186
0.0401423
0.0744509
0.0763829
0.0868385
0.175051
0.172799
0.0601175
0.169295
0.224396
0.105838
0.155017
0.193886
0.0413548
0.156453
0.131128
0.0360974
0.0603542
0.0609288
0.0787674
0.154564
0.177235
0.067174
0.102784
0.154112
0.017912
0.131735
0.317567
0.189017
0.108574
0.209609
-0.0778447
0.0921136
0.225439
0.130586
0.119661
0.177959
0.184252
0.128083
0.0447992
-0.0254904
0.0805649
0.162296
0.0907168
0.0977007
0.243523
0.220051
0.0853519
0.154058
-0.155114
0.0276923
0.208087
0.108723
0.0293455
0.00804105
0.0355183
0.0809638
0.0158926
-0.0319679
0.0767957
0.0946538
0.0371299
0.124318
0.232645
0.300609
0.311146
0.311061
0.0215954
0.0398197
0.162218
0.0716818
0.0531363
0.158086
0.20401
0.161418
0.0938037
0.0778437
0.0668187
0.0303477
0.0815691
0.176794
0.218818
0.207352
0.204915
0.257552
-0.171846
0.0647495
0.127171
0.0596551
0.0635105
0.0477823
0.0285621
0.101257
0.0690101
0.0486294
0.109425
0.102817
0.0616499
0.070456
0.1161
0.173042
0.253914
0.326316
0.0812798
0.199772
0.119355
0.0606573
0.0758646
0.0961635
0.0585217
0.063646
0.156327
0.239735
0.161975
0.0928622
0.0471936
-0.00615128
0.0598508
0.165033
0.223564
0.289899
-0.0877533
0.0347445
-0.0335195
-0.108737
-0.0752391
0.0104097
0.0848922
0.073931
0.0142112
0.0285476
0.129145
0.24834
0.160397
0.0330371
-0.0108631
0.0163845
0.0566798
0.177808
0.10679
0.0737937
0.0577134
0.0658314
0.0423811
0.0642552
0.102503
0.0445637
0.035273
-0.000444031
0.0141939
0.104384
0.0982359
0.165297
0.115503
0.0879322
0.191366
0.280521
0.118591
0.336362
0.302774
0.201304
0.175135
0.0646138
0.0502872
0.0987597
0.0761253
0.14498
0.181528
0.0634735
0.0915561
0.167232
0.143772
0.132232
0.198941
0.19028
0.104545
0.220703
0.231763
0.125503
0.0852265
0.0798505
0.11473
0.131452
0.0847707
0.0356446
0.143137
0.0989333
0.0392744
0.140906
0.161785
0.0971621
0.149095
0.222351
0.0877203
0.247999
0.232044
0.204893
0.127286
0.0602615
0.0935267
0.133421
0.132708
0.0232317
0.135839
0.208938
-0.100409
-0.0323256
0.318001
0.152641
0.0193025
0.279389
0.128765
0.158459
0.0737077
0.105901
0.0247933
0.00225241
-0.0311864
0.0731119
0.214297
0.0699256
0.14315
0.327338
0.172237
-0.0368521
0.284981
0.264827
0.0363505
0.376144
0.230533
0.231613
0.0261896
0.116778
0.251674
0.254935
0.126539
0.114617
0.148949
-0.0690184
0.128553
0.267643
0.109928
0.0641686
0.141619
0.152587
0.126016
0.310952
0.0911338
0.1899
-0.0240399
-0.0299618
0.0501271
0.100633
0.0684503
-0.00427704
0.00918065
0.0266426
0.168739
0.116926
0.0387207
0.168518
0.258636
0.20593
0.173559
0.30451
0.0431733
0.0878182
0.121933
0.164055