/*--------------------------------*- C++ -*----------------------------------*\
| =========                 |                                                 |
| \\      /  F ield         | OpenFOAM: The Open Source CFD Toolbox           |
|  \\    /   O peration     | Version:  3.0.1                                 |
|   \\  /    A nd           | Web:      www.OpenFOAM.org                      |
|    \\/     M anipulation  |                                                 |
\*---------------------------------------------------------------------------*/
FoamFile
{
    version     2.0;
    format      ascii;
    class       volScalarField;
    location    "0.1";
    object      Uy_mode_2;
}
// * * * * * * * * * * * * * * * * * * * * * * * * * * * * * * * * * * * * * //

dimensions      [0 0 0 0 0 0 0];

internalField   nonuniform List<scalar> 
244500
(
-1.81296
-0.76622
-0.095316
0.0327178
0.0279525
0.0138334
0.00516933
0.00133305
-0.00164025
0.00177618
-0.00129568
-0.000647426
-0.000235049
0.000231114
-0.00400488
0.00144875
-0.012243
0.191174
-4.64222
-3.48613
-1.6624
-0.798924
-0.41392
-0.248111
-0.180295
-0.146917
-0.1278
-0.0967597
-0.0920836
-0.0782819
-0.0692223
-0.061126
-0.0726269
-0.0341884
-0.103758
0.16023
-4.0798
-4.26494
-2.63661
-1.65544
-1.08895
-0.74056
-0.541863
-0.425078
-0.354618
-0.277491
-0.254167
-0.216323
-0.194107
-0.171023
-0.1873
-0.11582
-0.187244
0.0234503
-3.08128
-4.06052
-2.9317
-2.17405
-1.68656
-1.29385
-1.00771
-0.804598
-0.66758
-0.528625
-0.476966
-0.404318
-0.365716
-0.321724
-0.339581
-0.235117
-0.301526
-0.136622
-2.31621
-3.50885
-2.75943
-2.19486
-1.89467
-1.61456
-1.3662
-1.15003
-0.984821
-0.797759
-0.728037
-0.618187
-0.565172
-0.498886
-0.514622
-0.382886
-0.434601
-0.311799
-1.90087
-3.17545
-2.64529
-2.04925
-1.80562
-1.62816
-1.48237
-1.32308
-1.18698
-0.984455
-0.926733
-0.797815
-0.745905
-0.670771
-0.685656
-0.5377
-0.57041
-0.483689
-1.43693
-2.64883
-2.4846
-1.9226
-1.68037
-1.52187
-1.43035
-1.312
-1.22637
-1.02623
-1.00273
-0.877391
-0.843994
-0.786255
-0.809924
-0.669318
-0.6847
-0.634384
-1.74884
-0.750461
-0.092369
0.0322519
0.0272667
0.0139054
0.00514864
0.00236938
-0.00141629
0.000301592
-0.00103348
-0.000762835
-0.000501341
0.000202805
-0.00197389
0.000574831
-0.014553
0.207743
-4.65418
-3.46185
-1.65552
-0.803161
-0.416855
-0.247003
-0.179013
-0.143572
-0.127851
-0.101651
-0.0908031
-0.0770911
-0.0687009
-0.0574941
-0.0657546
-0.0272847
-0.110974
0.206038
-4.14765
-4.30473
-2.66841
-1.68383
-1.10173
-0.740421
-0.538895
-0.419651
-0.356155
-0.286478
-0.252129
-0.213169
-0.192695
-0.161671
-0.177239
-0.103513
-0.193989
0.0760659
-3.00071
-4.06466
-2.94888
-2.19441
-1.69305
-1.28837
-0.999549
-0.794923
-0.670479
-0.542095
-0.474786
-0.398835
-0.364151
-0.304317
-0.325786
-0.219284
-0.30095
-0.0847902
-2.30699
-3.57787
-2.84121
-2.25827
-1.91797
-1.61111
-1.35342
-1.13583
-0.990942
-0.818553
-0.729609
-0.612578
-0.566189
-0.473644
-0.493425
-0.368584
-0.422379
-0.264706
-1.8176
-3.12281
-2.63018
-2.05897
-1.8041
-1.61301
-1.4564
-1.29052
-1.18061
-0.999481
-0.924857
-0.788073
-0.750061
-0.641565
-0.653902
-0.529488
-0.548513
-0.435936
-1.4774
-2.74542
-2.5288
-1.95538
-1.70389
-1.5508
-1.4588
-1.32616
-1.2545
-1.06086
-1.01128
-0.865199
-0.8457
-0.750542
-0.75489
-0.672203
-0.667954
-0.593769
-1.81162
-0.767893
-0.0974347
0.0314063
0.0278834
0.0148056
0.00555531
0.00142527
5.62864e-05
-0.000974768
-0.00143806
-0.00156845
-0.000178649
-0.00160722
-0.00110111
6.36685e-05
-0.010427
0.209232
-4.63944
-3.49862
-1.67884
-0.808449
-0.415678
-0.244913
-0.179684
-0.146948
-0.124554
-0.106695
-0.0925399
-0.0784957
-0.0669985
-0.060292
-0.0614897
-0.0295858
-0.0918936
0.194732
-4.25381
-4.33613
-2.67158
-1.67295
-1.09244
-0.734719
-0.540997
-0.425171
-0.352028
-0.296675
-0.255982
-0.214687
-0.189789
-0.162591
-0.169368
-0.101997
-0.176307
0.0890736
-3.12717
-4.14294
-2.97761
-2.19247
-1.69265
-1.29206
-1.01392
-0.807522
-0.668495
-0.560488
-0.483417
-0.401004
-0.362124
-0.300398
-0.317156
-0.207364
-0.28974
-0.0619508
-2.45042
-3.65941
-2.84422
-2.21736
-1.88938
-1.59787
-1.36674
-1.1459
-0.982215
-0.839658
-0.740098
-0.613367
-0.566675
-0.463108
-0.486773
-0.34309
-0.416885
-0.23751
-1.8965
-3.15981
-2.61882
-2.04396
-1.83455
-1.65616
-1.52073
-1.33332
-1.19042
-1.04635
-0.954769
-0.798417
-0.758198
-0.624661
-0.64769
-0.492142
-0.535151
-0.422444
-1.57296
-2.79965
-2.52885
-1.91575
-1.69941
-1.54586
-1.48257
-1.31507
-1.19852
-1.06749
-1.02002
-0.874168
-0.865584
-0.741031
-0.757853
-0.636618
-0.63633
-0.589857
-1.83227
-0.775095
-0.0985741
0.031104
0.0275848
0.0137067
0.00433263
0.00203252
-0.000461673
-0.000796296
-0.000185954
-0.000966464
0.000287568
-0.000468429
0.000261374
-0.000971929
-0.016488
0.182754
-4.69246
-3.50532
-1.68119
-0.815656
-0.419243
-0.248534
-0.181869
-0.143584
-0.12456
-0.104343
-0.0878933
-0.0771854
-0.0665538
-0.0603198
-0.0593379
-0.045173
-0.099363
0.119893
-4.20507
-4.3132
-2.68584
-1.70144
-1.10996
-0.746018
-0.544253
-0.418135
-0.350254
-0.289709
-0.246573
-0.212697
-0.188536
-0.165588
-0.166008
-0.134951
-0.181406
-0.00745592
-3.20495
-4.12542
-2.99307
-2.23071
-1.71381
-1.299
-1.00528
-0.786732
-0.658933
-0.543687
-0.465632
-0.397622
-0.359111
-0.307734
-0.315165
-0.25616
-0.299514
-0.160019
-2.4304
-3.59299
-2.85913
-2.29059
-1.95066
-1.63463
-1.36724
-1.12195
-0.971144
-0.813658
-0.710983
-0.606697
-0.559663
-0.473317
-0.491831
-0.401838
-0.440312
-0.331
-1.95357
-3.19172
-2.69251
-2.13041
-1.87336
-1.65531
-1.47529
-1.26879
-1.15885
-1.00329
-0.910713
-0.788146
-0.747168
-0.632582
-0.667886
-0.558102
-0.581192
-0.525583
-1.51822
-2.73063
-2.515
-1.97467
-1.74596
-1.56154
-1.43806
-1.24275
-1.16889
-1.01988
-0.962028
-0.859969
-0.854822
-0.73931
-0.789125
-0.697896
-0.681324
-0.708805
-1.77719
-0.754248
-0.09373
0.0323109
0.0278453
0.0141773
0.00529332
0.00155592
-0.00114426
1.4064e-05
-0.00175651
-0.000606718
-0.00149696
-0.000902384
-0.00204132
-0.000724921
-0.0158207
0.202813
-4.6256
-3.48494
-1.67662
-0.8094
-0.417716
-0.248852
-0.181572
-0.147979
-0.128367
-0.103421
-0.0931586
-0.0765282
-0.0707237
-0.0595068
-0.0627658
-0.0338911
-0.106607
0.168785
-4.17769
-4.31689
-2.68991
-1.69104
-1.10441
-0.745679
-0.546223
-0.42952
-0.359306
-0.291197
-0.256739
-0.213062
-0.195721
-0.16392
-0.170291
-0.110319
-0.193083
0.0475789
-3.09201
-4.10974
-2.99235
-2.21616
-1.70903
-1.30399
-1.01547
-0.811993
-0.677495
-0.551145
-0.482109
-0.399861
-0.368536
-0.306301
-0.315946
-0.222261
-0.305753
-0.0985643
-2.28968
-3.56178
-2.81901
-2.22919
-1.91243
-1.62457
-1.38057
-1.16645
-1.00692
-0.835576
-0.74037
-0.61436
-0.570945
-0.47415
-0.481833
-0.367439
-0.427357
-0.268372
-1.8169
-3.13109
-2.68728
-2.11553
-1.85517
-1.64341
-1.48434
-1.31671
-1.19579
-1.02694
-0.947705
-0.801977
-0.763545
-0.645382
-0.640555
-0.528545
-0.545753
-0.437344
-1.4739
-2.69754
-2.51372
-1.93367
-1.69891
-1.5383
-1.45513
-1.32013
-1.24436
-1.07784
-1.02379
-0.873452
-0.855144
-0.755676
-0.746244
-0.673858
-0.651585
-0.583607
-1.81007
-0.770647
-0.0996506
0.0313363
0.0275842
0.0128471
0.00495643
0.00125911
-0.000161261
0.00125207
-0.00189697
0.000480563
-0.0019913
0.000272762
-0.00362415
0.000521161
-0.0165171
0.234191
-4.61467
-3.49093
-1.67634
-0.808768
-0.419469
-0.251318
-0.179278
-0.144891
-0.121752
-0.0979086
-0.093062
-0.0731528
-0.0721786
-0.0553759
-0.0663705
-0.0246869
-0.108473
0.224456
-4.10585
-4.32289
-2.68618
-1.68671
-1.10803
-0.749254
-0.538751
-0.419726
-0.343921
-0.280366
-0.255831
-0.207276
-0.198578
-0.157641
-0.175908
-0.0961282
-0.179337
0.0959403
-3.20073
-4.12202
-2.97188
-2.21002
-1.72514
-1.31921
-1.00826
-0.796072
-0.65142
-0.534516
-0.480546
-0.392081
-0.372218
-0.298791
-0.321561
-0.205472
-0.27535
-0.0600382
-2.38001
-3.63808
-2.845
-2.23948
-1.9395
-1.64575
-1.36502
-1.13554
-0.961743
-0.808503
-0.736783
-0.605475
-0.575745
-0.467362
-0.488236
-0.34645
-0.388961
-0.231199
-1.96827
-3.17
-2.67105
-2.10487
-1.88957
-1.68411
-1.48026
-1.28944
-1.1427
-0.996151
-0.941584
-0.787193
-0.760138
-0.630265
-0.649619
-0.498578
-0.510628
-0.405985
-1.48127
-2.77959
-2.54097
-1.92486
-1.72136
-1.56621
-1.43668
-1.28366
-1.17402
-1.0439
-1.03339
-0.880656
-0.869104
-0.740953
-0.749666
-0.615761
-0.604087
-0.555812
-1.78037
-0.759466
-0.0972293
0.0319771
0.027572
0.0139234
0.00428472
0.00100987
-0.000562051
0.000169888
-0.00147033
0.000648159
-0.00325464
0.00124579
-0.00424659
0.00157714
-0.0152556
0.233918
-4.60691
-3.44829
-1.64817
-0.79798
-0.416656
-0.249819
-0.183902
-0.146596
-0.122521
-0.0996899
-0.0899883
-0.0719916
-0.0755488
-0.0528684
-0.0683933
-0.0251358
-0.106278
0.218804
-4.15849
-4.24858
-2.63333
-1.66954
-1.10268
-0.747362
-0.549251
-0.423796
-0.345122
-0.281376
-0.248153
-0.204168
-0.201871
-0.152202
-0.176808
-0.0971946
-0.17636
0.0891001
-3.07454
-4.01727
-2.93317
-2.20515
-1.7125
-1.30456
-1.01733
-0.800583
-0.6541
-0.534695
-0.466184
-0.386472
-0.373863
-0.290187
-0.319559
-0.206083
-0.2727
-0.0619484
-2.2914
-3.52465
-2.82142
-2.26704
-1.9368
-1.62439
-1.37413
-1.13875
-0.964163
-0.806207
-0.710982
-0.594509
-0.572888
-0.453837
-0.482377
-0.34322
-0.387837
-0.222167
-1.87508
-3.10091
-2.64535
-2.09499
-1.83684
-1.62777
-1.4906
-1.31196
-1.17058
-1.0108
-0.914635
-0.777232
-0.758117
-0.616849
-0.644105
-0.489517
-0.510638
-0.381003
-1.46863
-2.73869
-2.53174
-1.95144
-1.68897
-1.48905
-1.40841
-1.26496
-1.18578
-1.0608
-0.996314
-0.863604
-0.857795
-0.71666
-0.748905
-0.606001
-0.611516
-0.522934
-1.84864
-0.763874
-0.0951975
0.0319787
0.0276088
0.0131103
0.00495749
0.00171466
-0.000601815
0.00160715
-0.001489
9.47066e-05
-0.00265395
0.000527708
-0.00371226
-0.00196404
-0.0137642
0.228115
-4.57037
-3.46023
-1.666
-0.808032
-0.418202
-0.250721
-0.179486
-0.143911
-0.123529
-0.0968649
-0.092395
-0.0747187
-0.0738762
-0.0540043
-0.0657072
-0.0281561
-0.0962781
0.234959
-4.2284
-4.32965
-2.68112
-1.68456
-1.10111
-0.74632
-0.538649
-0.418195
-0.347119
-0.278549
-0.256131
-0.21139
-0.201822
-0.155702
-0.174061
-0.0995527
-0.157894
0.121971
-3.02889
-4.06352
-2.98092
-2.21816
-1.71076
-1.30855
-1.00402
-0.792223
-0.654793
-0.530119
-0.481325
-0.400087
-0.377742
-0.298168
-0.318335
-0.20836
-0.244548
-0.0214361
-2.45348
-3.57816
-2.81026
-2.23095
-1.92407
-1.64409
-1.3704
-1.13812
-0.968843
-0.800757
-0.735663
-0.618102
-0.583903
-0.470391
-0.486279
-0.348556
-0.34817
-0.181561
-1.89858
-3.13969
-2.62401
-2.05993
-1.84874
-1.67804
-1.48446
-1.29324
-1.15108
-0.981444
-0.935342
-0.806278
-0.77358
-0.637706
-0.653111
-0.499378
-0.455904
-0.343065
-1.56599
-2.74152
-2.52063
-1.95172
-1.73031
-1.58177
-1.44731
-1.29309
-1.18813
-1.02427
-1.01012
-0.900027
-0.894424
-0.757408
-0.778556
-0.634344
-0.546596
-0.48892
-1.85061
-0.771343
-0.098016
0.0319287
0.0276649
0.0139477
0.00623504
0.00101199
-0.00242753
0.00165304
-0.000747055
-0.00140848
-0.000203371
0.00117535
-0.00492104
-0.000656588
-0.00578368
0.154195
-4.62452
-3.49059
-1.67844
-0.809947
-0.418662
-0.24803
-0.177993
-0.149412
-0.13063
-0.0966131
-0.0906639
-0.0812995
-0.0692839
-0.0601291
-0.0777699
-0.0444488
-0.085214
0.0786951
-4.13523
-4.30077
-2.67053
-1.68071
-1.10268
-0.741809
-0.538796
-0.43159
-0.361143
-0.278387
-0.253334
-0.22259
-0.193541
-0.169972
-0.1969
-0.130893
-0.175959
-0.0525353
-3.12129
-4.15116
-3.0259
-2.23857
-1.72448
-1.30215
-1.00256
-0.813674
-0.677206
-0.530997
-0.478704
-0.416182
-0.364366
-0.320815
-0.354919
-0.251249
-0.299863
-0.208046
-2.39768
-3.60126
-2.83732
-2.23463
-1.92028
-1.61605
-1.3586
-1.16844
-1.00486
-0.806509
-0.736632
-0.641129
-0.563983
-0.49747
-0.538211
-0.397796
-0.439838
-0.376664
-1.83478
-3.17027
-2.71805
-2.12618
-1.86853
-1.63031
-1.44297
-1.3136
-1.19506
-0.992871
-0.94394
-0.841234
-0.74996
-0.665693
-0.718335
-0.555172
-0.579534
-0.537128
-1.42416
-2.76322
-2.55611
-1.945
-1.73576
-1.55306
-1.41468
-1.31592
-1.24474
-1.04238
-1.02944
-0.946266
-0.860658
-0.774354
-0.841901
-0.692627
-0.697729
-0.667102
-1.81694
-0.760971
-0.0960453
0.0319455
0.0261771
0.0142528
0.00432792
0.00105833
-0.000608324
-0.000245656
0.0017612
-0.00172258
-0.00182853
0.00272395
-0.00548143
-0.000312876
-0.00783109
0.199041
-4.60913
-3.45625
-1.66603
-0.808913
-0.422392
-0.246103
-0.182202
-0.14603
-0.12319
-0.0998241
-0.0811342
-0.0801607
-0.0720106
-0.0497479
-0.073705
-0.0268084
-0.0813208
0.182119
-4.16892
-4.31341
-2.67302
-1.68418
-1.10792
-0.736928
-0.544782
-0.422359
-0.347213
-0.280897
-0.235902
-0.219932
-0.197607
-0.150087
-0.188541
-0.0943533
-0.145749
0.0676041
-3.03651
-4.09521
-2.99633
-2.23492
-1.72811
-1.29415
-1.01341
-0.798986
-0.658332
-0.531765
-0.452173
-0.411685
-0.369935
-0.291192
-0.341279
-0.196877
-0.239494
-0.0779563
-2.42116
-3.63419
-2.86098
-2.26204
-1.9328
-1.60263
-1.37016
-1.13912
-0.976105
-0.802078
-0.697413
-0.634643
-0.570542
-0.461321
-0.517961
-0.327849
-0.350453
-0.244828
-1.84311
-3.17104
-2.7286
-2.15945
-1.89643
-1.64227
-1.50485
-1.30902
-1.17822
-0.990306
-0.888735
-0.828484
-0.752159
-0.628072
-0.694383
-0.468458
-0.466812
-0.415185
-1.49905
-2.77325
-2.56018
-1.98986
-1.75733
-1.54347
-1.47323
-1.2986
-1.23023
-1.04364
-0.966602
-0.937128
-0.852692
-0.734699
-0.817114
-0.580977
-0.556543
-0.580859
-1.81296
-0.766237
-0.0951513
0.032431
0.0282134
0.0140451
0.00470755
0.00165054
-0.00135385
0.00132561
-0.000873446
-0.000741085
-0.00013604
0.000197364
-0.00346612
0.0014657
-0.0117283
0.207535
-4.64224
-3.486
-1.66191
-0.800022
-0.412792
-0.247387
-0.181706
-0.145302
-0.126909
-0.097671
-0.0904791
-0.077455
-0.0684113
-0.0588306
-0.0699535
-0.0290298
-0.0972065
0.186385
-4.07995
-4.26443
-2.63581
-1.65748
-1.08682
-0.739451
-0.544268
-0.421656
-0.353476
-0.278511
-0.251452
-0.214089
-0.192815
-0.165668
-0.182373
-0.106077
-0.168395
0.0593291
-3.0817
-4.05926
-2.93081
-2.17722
-1.6833
-1.29224
-1.01136
-0.798831
-0.666426
-0.52951
-0.473289
-0.400442
-0.363807
-0.313606
-0.331181
-0.222277
-0.268855
-0.0895576
-2.31793
-3.50582
-2.75802
-2.19921
-1.89011
-1.61262
-1.37142
-1.14172
-0.98363
-0.798412
-0.723326
-0.613236
-0.56142
-0.489369
-0.50258
-0.367193
-0.390627
-0.249873
-1.9027
-3.1706
-2.64413
-2.0547
-1.80019
-1.62555
-1.4888
-1.31303
-1.18597
-0.984648
-0.92025
-0.793652
-0.739206
-0.659104
-0.672362
-0.520548
-0.514653
-0.404964
-1.44211
-2.64167
-2.48181
-1.92849
-1.67543
-1.51993
-1.43717
-1.30023
-1.22492
-1.02656
-0.993592
-0.874192
-0.835103
-0.771431
-0.79452
-0.657034
-0.623543
-0.523541
-1.74886
-0.750416
-0.0923028
0.0320636
0.0274083
0.0141231
0.00475118
0.00247373
-0.000939069
-0.000443767
-0.000371096
-0.000894841
-0.000514565
0.000606715
-0.00181953
0.000667877
-0.0137574
0.217425
-4.65435
-3.46114
-1.65559
-0.803839
-0.416059
-0.246403
-0.180121
-0.14281
-0.126256
-0.103362
-0.0885906
-0.0765389
-0.0685864
-0.0543166
-0.0652422
-0.022505
-0.105656
0.224249
-4.14803
-4.30277
-2.66884
-1.68512
-1.10011
-0.739712
-0.540648
-0.417914
-0.353799
-0.288593
-0.248542
-0.211495
-0.192841
-0.154757
-0.176801
-0.0939469
-0.179381
0.100908
-3.00195
-4.06054
-2.94977
-2.19657
-1.69036
-1.28772
-1.00209
-0.791812
-0.667897
-0.544098
-0.470036
-0.395506
-0.364675
-0.293446
-0.32457
-0.206111
-0.275061
-0.0555302
-2.31
-3.57087
-2.84209
-2.26141
-1.91444
-1.61102
-1.35731
-1.13092
-0.988502
-0.81996
-0.723928
-0.607751
-0.566222
-0.460068
-0.490592
-0.35259
-0.385737
-0.231084
-1.82288
-3.1126
-2.63146
-2.06273
-1.79839
-1.61334
-1.46242
-1.28365
-1.18008
-0.999847
-0.917093
-0.783692
-0.747737
-0.62546
-0.651093
-0.511516
-0.498959
-0.400705
-1.4864
-2.73156
-2.52653
-1.96058
-1.69946
-1.55023
-1.46801
-1.31666
-1.25423
-1.06293
-1.0012
-0.860611
-0.841842
-0.732213
-0.750144
-0.65696
-0.607972
-0.546682
-1.81166
-0.767819
-0.0973528
0.0311225
0.0281753
0.0148506
0.00531143
0.00154606
0.000227101
-0.0010422
-0.00159058
-0.00110421
-0.000372867
-0.0014594
-0.000660408
-0.000746371
-0.00942902
0.218765
-4.63966
-3.49788
-1.67874
-0.809461
-0.414513
-0.244825
-0.18039
-0.146246
-0.123817
-0.106537
-0.0927412
-0.0763162
-0.0672176
-0.0579162
-0.0597819
-0.0268172
-0.0862376
0.213087
-4.25431
-4.33427
-2.67171
-1.67475
-1.09024
-0.734857
-0.542103
-0.423717
-0.350845
-0.296106
-0.256182
-0.210614
-0.190185
-0.157395
-0.16642
-0.0965131
-0.159237
0.11124
-3.12862
-4.13905
-2.97818
-2.19523
-1.68927
-1.29254
-1.0155
-0.805113
-0.666853
-0.559462
-0.4835
-0.395081
-0.362284
-0.292573
-0.312082
-0.19934
-0.261836
-0.0334947
-2.45349
-3.6528
-2.84518
-2.22105
-1.88481
-1.5989
-1.36896
-1.14294
-0.979996
-0.838096
-0.739767
-0.606237
-0.566055
-0.452993
-0.479799
-0.332692
-0.379342
-0.202476
-1.90168
-3.14979
-2.62037
-2.04831
-1.82854
-1.65759
-1.52317
-1.33026
-1.18808
-1.04475
-0.953132
-0.790913
-0.756715
-0.6114
-0.64069
-0.479352
-0.488975
-0.381445
-1.581
-2.78664
-2.52876
-1.9209
-1.6938
-1.54722
-1.48581
-1.3136
-1.19382
-1.06688
-1.01711
-0.866029
-0.86537
-0.723229
-0.750805
-0.625255
-0.582178
-0.540981
-1.83231
-0.775101
-0.0984737
0.0309104
0.0276256
0.0139506
0.0039635
0.00221546
-0.000358903
-0.000935772
-0.000133208
-0.0008142
0.000298783
-0.000525758
0.000451842
-0.000454402
-0.0163815
0.185327
-4.69269
-3.5051
-1.68073
-0.816471
-0.418808
-0.247924
-0.1829
-0.142832
-0.124148
-0.104588
-0.087548
-0.0762331
-0.0663464
-0.0597984
-0.0583081
-0.0428216
-0.0980999
0.124419
-4.20574
-4.31257
-2.68492
-1.70302
-1.10886
-0.745271
-0.545934
-0.416623
-0.349687
-0.289888
-0.245907
-0.210796
-0.18813
-0.164257
-0.163613
-0.130697
-0.177214
-0.000828749
-3.20629
-4.12418
-2.99159
-2.23325
-1.71166
-1.29821
-1.00767
-0.784259
-0.658382
-0.543674
-0.464626
-0.394697
-0.358336
-0.305662
-0.311058
-0.249731
-0.292763
-0.150396
-2.43272
-3.59071
-2.85687
-2.29441
-1.94719
-1.63407
-1.37049
-1.11822
-0.970849
-0.813399
-0.709588
-0.602938
-0.558266
-0.470643
-0.486171
-0.393229
-0.431807
-0.317468
-1.95735
-3.18832
-2.68899
-2.13572
-1.86799
-1.65478
-1.47967
-1.26365
-1.159
-1.00297
-0.908858
-0.783827
-0.745132
-0.629089
-0.661226
-0.54703
-0.572231
-0.508098
-1.5232
-2.72628
-2.50925
-1.98133
-1.74031
-1.56105
-1.44345
-1.23648
-1.16927
-1.01943
-0.959729
-0.855267
-0.852152
-0.734514
-0.782444
-0.684391
-0.671624
-0.691489
-1.77723
-0.754256
-0.0936932
0.0321795
0.0279861
0.0141774
0.00518701
0.00171067
-0.00119528
5.38313e-05
-0.00159224
-0.000681399
-0.00136962
-0.000565116
-0.00239019
-3.06597e-05
-0.0154124
0.202692
-4.62577
-3.48484
-1.67646
-0.809824
-0.417152
-0.248931
-0.181805
-0.147403
-0.128502
-0.103179
-0.0925159
-0.076618
-0.0700441
-0.0582775
-0.0633343
-0.031326
-0.10491
0.169316
-4.17807
-4.31653
-2.68964
-1.6918
-1.10326
-0.745975
-0.546494
-0.428455
-0.359647
-0.290662
-0.255648
-0.213199
-0.194299
-0.161873
-0.170889
-0.105614
-0.190224
0.0489162
-3.09278
-4.10896
-2.99212
-2.21739
-1.70708
-1.30462
-1.01575
-0.810316
-0.678182
-0.550187
-0.480558
-0.400171
-0.366071
-0.303672
-0.316513
-0.215016
-0.302096
-0.096166
-2.29114
-3.55983
-2.81862
-2.23119
-1.90958
-1.62567
-1.38099
-1.16398
-1.00812
-0.834186
-0.738166
-0.615231
-0.567024
-0.471149
-0.482741
-0.357037
-0.423862
-0.264563
-1.81896
-3.12872
-2.68685
-2.11788
-1.85129
-1.64505
-1.48492
-1.3134
-1.19751
-1.02539
-0.94452
-0.803977
-0.757917
-0.641824
-0.642834
-0.514038
-0.542696
-0.432189
-1.47717
-2.69367
-2.51267
-1.93714
-1.69468
-1.54035
-1.45582
-1.31601
-1.24652
-1.07656
-1.01881
-0.877499
-0.848081
-0.75046
-0.751653
-0.655093
-0.648769
-0.576268
-1.81002
-0.770665
-0.0995817
0.0314079
0.0274247
0.0131161
0.00472629
0.00139187
-0.00013382
0.00103702
-0.00174966
0.000388045
-0.0019563
0.000114966
-0.00319754
7.30084e-05
-0.0170257
0.236562
-4.6145
-3.49114
-1.67611
-0.808468
-0.419899
-0.250586
-0.179916
-0.144475
-0.12171
-0.0985336
-0.0925056
-0.0734218
-0.0720396
-0.055774
-0.065074
-0.0259179
-0.109601
0.231925
-4.10556
-4.32343
-2.68571
-1.68624
-1.1086
-0.748156
-0.539776
-0.41892
-0.343971
-0.281362
-0.254812
-0.207802
-0.198321
-0.15817
-0.173924
-0.0980058
-0.180745
0.108489
-3.20001
-4.12326
-2.97119
-2.20956
-1.72561
-1.31781
-1.0097
-0.794716
-0.651628
-0.535878
-0.478905
-0.392878
-0.371918
-0.299031
-0.319279
-0.207972
-0.276616
-0.0436525
-2.37895
-3.63962
-2.84396
-2.23972
-1.93964
-1.64407
-1.36703
-1.13334
-0.962242
-0.810277
-0.734413
-0.606436
-0.57575
-0.466619
-0.486002
-0.350503
-0.388119
-0.213263
-1.96727
-3.17206
-2.66907
-2.10616
-1.88927
-1.68224
-1.48287
-1.28621
-1.14361
-0.998382
-0.93872
-0.787988
-0.760956
-0.627896
-0.646835
-0.506523
-0.504828
-0.386096
-1.48053
-2.7806
-2.53894
-1.92817
-1.71974
-1.56489
-1.43976
-1.2789
-1.17549
-1.04601
-1.03041
-0.881142
-0.871006
-0.736937
-0.744671
-0.631317
-0.593416
-0.526894
-1.78028
-0.759525
-0.0972965
0.032224
0.0271766
0.0140486
0.00453231
0.00059462
-0.000449328
0.000452911
-0.00181998
0.000683259
-0.00289603
0.000718966
-0.00412878
0.00147432
-0.0154342
0.232841
-4.6066
-3.44895
-1.64808
-0.797144
-0.41797
-0.249213
-0.183355
-0.14789
-0.122096
-0.0989523
-0.09112
-0.0720211
-0.0744584
-0.0548794
-0.067969
-0.0262049
-0.106587
0.217265
-4.15783
-4.25026
-2.63283
-1.66811
-1.10496
-0.74595
-0.548705
-0.425955
-0.344181
-0.28044
-0.249988
-0.204253
-0.200136
-0.155828
-0.176029
-0.0991026
-0.177815
0.0885566
-3.07299
-4.02035
-2.93224
-2.20319
-1.71591
-1.30203
-1.01691
-0.80377
-0.652391
-0.533796
-0.468719
-0.386597
-0.371724
-0.295123
-0.318884
-0.208529
-0.275361
-0.0624214
-2.2889
-3.52997
-2.81912
-2.26447
-1.94179
-1.6203
-1.37385
-1.14318
-0.961358
-0.805542
-0.714248
-0.594301
-0.571015
-0.45932
-0.482245
-0.346531
-0.390555
-0.223894
-1.87077
-3.1088
-2.64295
-2.09165
-1.84366
-1.62216
-1.49014
-1.31791
-1.16628
-1.01036
-0.919044
-0.775912
-0.757276
-0.622376
-0.644183
-0.494726
-0.511752
-0.384854
-1.46369
-2.7485
-2.52848
-1.94733
-1.69718
-1.48294
-1.40701
-1.27264
-1.18065
-1.05959
-1.00213
-0.860497
-0.858476
-0.721865
-0.74884
-0.615353
-0.609153
-0.527023
-1.84852
-0.764089
-0.0948804
0.0320583
0.0268499
0.0142635
0.00427828
0.00174347
-0.000187694
0.000927875
-0.000953208
-0.000365891
-0.00262027
0.00083025
-0.00454536
-0.00150188
-0.0142581
0.225885
-4.57002
-3.46169
-1.66406
-0.808383
-0.420314
-0.247136
-0.182021
-0.143787
-0.122385
-0.0991064
-0.0907573
-0.0764527
-0.0737755
-0.0537984
-0.0682975
-0.0279575
-0.0976365
0.231475
-4.22784
-4.33328
-2.67648
-1.68577
-1.10422
-0.740032
-0.543728
-0.41746
-0.345537
-0.282461
-0.253071
-0.214763
-0.201403
-0.155919
-0.178629
-0.0997393
-0.16208
0.117846
-3.02744
-4.0708
-2.97279
-2.22091
-1.71479
-1.29905
-1.01215
-0.790389
-0.652945
-0.535868
-0.47656
-0.405302
-0.376991
-0.298663
-0.325533
-0.208509
-0.251518
-0.0266889
-2.45142
-3.59026
-2.79642
-2.23579
-1.92866
-1.63064
-1.38234
-1.13462
-0.967021
-0.80851
-0.728994
-0.625214
-0.583118
-0.470539
-0.496917
-0.347951
-0.357801
-0.186924
-1.89367
-3.15832
-2.60614
-2.06724
-1.85315
-1.65982
-1.49988
-1.28731
-1.15024
-0.991061
-0.927061
-0.815102
-0.772916
-0.637176
-0.667845
-0.497971
-0.467651
-0.346885
-1.56028
-2.76552
-2.49765
-1.96096
-1.73555
-1.56117
-1.46479
-1.28365
-1.18947
-1.0342
-1.00149
-0.910966
-0.894168
-0.754735
-0.797919
-0.634086
-0.558358
-0.487738
-1.85061
-0.771429
-0.0978515
0.0321237
0.0268092
0.014876
0.00634425
-0.000439649
-0.000994078
0.00148634
-0.00194859
-0.000142193
-0.000504941
0.000597803
-0.00498
-0.000104954
-0.00638128
0.150253
-4.62477
-3.49141
-1.6769
-0.809815
-0.421217
-0.244949
-0.178395
-0.153878
-0.12584
-0.0978449
-0.0943156
-0.0775155
-0.0706127
-0.0631709
-0.0778218
-0.0451573
-0.0883719
0.0714015
-4.13596
-4.30303
-2.66673
-1.68095
-1.10656
-0.735986
-0.54074
-0.43872
-0.352574
-0.281687
-0.258754
-0.216366
-0.196055
-0.175572
-0.197133
-0.132206
-0.184754
-0.062167
-3.12206
-4.15581
-3.01923
-2.23975
-1.7298
-1.29244
-1.00689
-0.823561
-0.664129
-0.537365
-0.485682
-0.407333
-0.368312
-0.329032
-0.355744
-0.252691
-0.312985
-0.221728
-2.39925
-3.60892
-2.82568
-2.23749
-1.92692
-1.60034
-1.36656
-1.18208
-0.986258
-0.816761
-0.745878
-0.629067
-0.568786
-0.508486
-0.540193
-0.398201
-0.454414
-0.395789
-1.83568
-3.18507
-2.7005
-2.13085
-1.87899
-1.6051
-1.45285
-1.33183
-1.16964
-1.00608
-0.957137
-0.827371
-0.754599
-0.679346
-0.723362
-0.553297
-0.590052
-0.558714
-1.42347
-2.78307
-2.53574
-1.94849
-1.75129
-1.52003
-1.42356
-1.3411
-1.21648
-1.05425
-1.04463
-0.931983
-0.861218
-0.789582
-0.855348
-0.688887
-0.697227
-0.674345
-1.81709
-0.760744
-0.0962203
0.0318734
0.0267675
0.0131522
0.00539443
0.000344593
-0.000881319
0.00075556
0.000599066
-0.00143609
-0.00158842
0.00236301
-0.00599486
-0.000893212
-0.00716724
0.188632
-4.60988
-3.45497
-1.66688
-0.808793
-0.421082
-0.249624
-0.178954
-0.14871
-0.123685
-0.0974469
-0.0849932
-0.0798146
-0.0715459
-0.0525552
-0.0754514
-0.0324048
-0.0796206
0.161095
-4.17047
-4.31049
-2.67504
-1.6836
-1.10611
-0.742958
-0.539149
-0.427762
-0.347051
-0.277768
-0.242482
-0.219313
-0.197127
-0.15579
-0.191566
-0.104247
-0.149343
0.0409833
-3.0395
-4.0893
-3.00003
-2.23297
-1.72608
-1.30299
-1.00494
-0.808203
-0.656705
-0.528285
-0.461775
-0.410282
-0.369856
-0.299787
-0.346375
-0.210314
-0.249432
-0.109874
-2.4257
-3.62533
-2.86801
-2.25766
-1.93012
-1.61407
-1.35801
-1.1536
-0.972446
-0.798202
-0.711083
-0.631507
-0.571207
-0.472448
-0.525501
-0.34407
-0.365717
-0.280164
-1.84945
-3.15738
-2.73795
-2.15211
-1.8956
-1.65649
-1.48907
-1.32981
-1.17133
-0.985633
-0.907521
-0.823085
-0.753044
-0.641414
-0.704053
-0.487556
-0.485279
-0.446828
-1.505
-2.76008
-2.57524
-1.97424
-1.75517
-1.55751
-1.45328
-1.32909
-1.22198
-1.03675
-0.9914
-0.931523
-0.852074
-0.75017
-0.827579
-0.601527
-0.585262
-0.591944
-1.11202
-2.34154
-2.38066
-1.86476
-1.57187
-1.38769
-1.31803
-1.23698
-1.20586
-0.998164
-0.978012
-0.857901
-0.815531
-0.799253
-0.814465
-0.728486
-0.722854
-0.750015
-0.699489
-1.86677
-2.0905
-1.68996
-1.35194
-1.17142
-1.07681
-1.03085
-1.11967
-1.04705
-1.00747
-0.907957
-0.773456
-0.791208
-0.785756
-0.715164
-0.672694
-0.703519
-0.434813
-1.30197
-1.66974
-1.63099
-1.3715
-1.17863
-1.07119
-0.949928
-0.939143
-0.964985
-0.912501
-0.791573
-0.716238
-0.793023
-0.73161
-0.629042
-0.600169
-0.629538
-0.411253
-0.917739
-1.28812
-1.32888
-1.08452
-0.956467
-0.984586
-0.864969
-0.824916
-0.903032
-0.83458
-0.744179
-0.685173
-0.690463
-0.713872
-0.681678
-0.572221
-0.532604
-0.173278
-0.597047
-1.02683
-1.10244
-0.90104
-0.859935
-0.961009
-0.824496
-0.685076
-0.688028
-0.650569
-0.631426
-0.571138
-0.512536
-0.588485
-0.643473
-0.594524
-0.513193
-0.208667
-0.462313
-0.751575
-0.956813
-0.906979
-0.790853
-0.759286
-0.701598
-0.613439
-0.507208
-0.562209
-0.678684
-0.520599
-0.460778
-0.564149
-0.59132
-0.650736
-0.533436
-0.113814
-0.273977
-0.528459
-0.674573
-0.646351
-0.553842
-0.561461
-0.616953
-0.611019
-0.460812
-0.359677
-0.42633
-0.408217
-0.398308
-0.375545
-0.379477
-0.487248
-0.40604
-0.069394
-0.104747
-0.224194
-0.32687
-0.45394
-0.50347
-0.587757
-0.538247
-0.376744
-0.320811
-0.432305
-0.530885
-0.447846
-0.357434
-0.255099
-0.200876
-0.257975
-0.282523
-0.194563
-0.160797
-0.208593
-0.210258
-0.201708
-0.17202
-0.159071
-0.13131
-0.168222
-0.231011
-0.160169
-0.199485
-0.288288
-0.23571
-0.134665
-0.145966
-0.207132
-0.265217
-0.0409144
0.0441938
0.0206548
0.0178392
0.0303101
0.0551344
0.00759983
-0.139369
-0.0990239
-0.0306251
-0.00412609
-0.0806744
-0.087442
0.0913141
0.0769547
0.0279736
0.0738162
0.144607
-1.13759
-2.29784
-2.26981
-1.74811
-1.48989
-1.34487
-1.26196
-1.12936
-1.11605
-0.972836
-0.988758
-0.87881
-0.863325
-0.814783
-0.74623
-0.694174
-0.704821
-0.684683
-0.664192
-1.73023
-1.97895
-1.73276
-1.4393
-1.29325
-1.21296
-1.09638
-1.05519
-0.922515
-0.890282
-0.792316
-0.726435
-0.781114
-0.737221
-0.695063
-0.728095
-0.755238
-0.538944
-1.26251
-1.55519
-1.47299
-1.21239
-1.03125
-0.985971
-0.945958
-0.898615
-0.876683
-0.910993
-0.849705
-0.746201
-0.741003
-0.644815
-0.538016
-0.599147
-0.742564
-0.352954
-0.905971
-1.24329
-1.27191
-1.15839
-1.06622
-1.03816
-0.964438
-0.856225
-0.750021
-0.626309
-0.57828
-0.581907
-0.619843
-0.683225
-0.669431
-0.612184
-0.675984
-0.0576423
-0.714459
-1.07002
-1.11079
-1.00504
-0.85263
-0.811594
-0.80712
-0.708904
-0.669263
-0.631099
-0.667144
-0.699107
-0.646513
-0.616155
-0.542124
-0.46979
-0.600789
-0.19454
-0.533135
-0.804136
-0.856632
-0.836461
-0.775583
-0.745884
-0.697796
-0.529404
-0.421312
-0.409181
-0.46286
-0.495675
-0.473616
-0.474145
-0.460257
-0.465247
-0.564752
-0.257659
-0.354878
-0.498723
-0.556179
-0.575096
-0.603602
-0.590322
-0.586716
-0.526207
-0.465276
-0.427663
-0.398431
-0.400911
-0.413083
-0.442298
-0.439812
-0.460579
-0.457895
-0.0861099
-0.02381
-0.193377
-0.316051
-0.483049
-0.586673
-0.545502
-0.516744
-0.371703
-0.38162
-0.41821
-0.244366
-0.236002
-0.254934
-0.215096
-0.216752
-0.281244
-0.340167
-0.127646
-0.00950459
-0.159875
-0.175364
-0.153962
-0.184359
-0.17013
-0.313324
-0.324222
-0.287924
-0.275367
-0.258432
-0.325441
-0.209935
-0.130019
-0.178372
-0.196907
-0.194625
-0.031403
0.0390813
0.00816509
0.00749496
0.0424649
0.0146547
0.0249198
-0.000190425
0.0727338
0.0614697
-0.00460507
-0.00948637
-0.0754596
-0.100268
-0.0851137
0.0314325
0.126485
0.0979527
-1.21517
-2.27974
-2.27156
-1.8148
-1.62649
-1.44053
-1.38831
-1.26189
-1.17421
-1.05688
-1.01682
-0.875837
-0.85599
-0.779326
-0.7378
-0.681935
-0.65487
-0.686495
-0.681438
-1.83697
-2.03608
-1.70604
-1.43085
-1.26848
-1.234
-1.14228
-1.01555
-0.917842
-0.879087
-0.817439
-0.776177
-0.804058
-0.741204
-0.736348
-0.686984
-0.666045
-0.514322
-1.31068
-1.64786
-1.56447
-1.34656
-1.12229
-1.03793
-1.00748
-0.925599
-0.877681
-0.881507
-0.859769
-0.746067
-0.70412
-0.588197
-0.559256
-0.562079
-0.600716
-0.346429
-0.924272
-1.26077
-1.32738
-1.24616
-1.01671
-0.937178
-0.968195
-0.895675
-0.871237
-0.84647
-0.812506
-0.721305
-0.629827
-0.546195
-0.625169
-0.638738
-0.700089
-0.30938
-0.682881
-1.00924
-1.19815
-1.21624
-0.948825
-0.753198
-0.795721
-0.778099
-0.771031
-0.69194
-0.577181
-0.568655
-0.607176
-0.549456
-0.526986
-0.437265
-0.488299
-0.08635
-0.404515
-0.840294
-0.971854
-0.876913
-0.686048
-0.677315
-0.749553
-0.659824
-0.617451
-0.538717
-0.473011
-0.494834