/*--------------------------------*- C++ -*----------------------------------*\
| =========                 |                                                 |
| \\      /  F ield         | OpenFOAM: The Open Source CFD Toolbox           |
|  \\    /   O peration     | Version:  3.0.1                                 |
|   \\  /    A nd           | Web:      www.OpenFOAM.org                      |
|    \\/     M anipulation  |                                                 |
\*---------------------------------------------------------------------------*/
FoamFile
{
    version     2.0;
    format      ascii;
    class       volScalarField;
    location    "0.1";
    object      Uy_mode_0;
}
// * * * * * * * * * * * * * * * * * * * * * * * * * * * * * * * * * * * * * //

dimensions      [0 0 0 0 0 0 0];

internalField   nonuniform List<scalar> 
244500
(
0.729094
0.306148
0.0411455
-0.0110301
-0.01092
-0.00549419
-0.00162124
-0.00190287
-7.99667e-05
-0.000628778
-0.00100269
-0.00160101
0.000801909
-0.00219633
0.000777779
-0.000492827
0.00583811
-0.119823
1.78585
1.37434
0.661361
0.320689
0.162809
0.0955398
0.0695812
0.051263
0.047038
0.0360313
0.0285513
0.0214808
0.0256635
0.00984855
0.0190007
-0.00744951
0.0297978
-0.161744
1.68321
1.72706
1.06714
0.6699
0.431333
0.288152
0.20871
0.154461
0.134196
0.104238
0.0854073
0.0676043
0.0715829
0.0389049
0.0524842
0.00527742
0.0247435
-0.145206
1.16123
1.59443
1.16576
0.867106
0.662527
0.504699
0.389082
0.296298
0.255795
0.20067
0.16583
0.133462
0.133927
0.0842813
0.0960488
0.0327262
0.025847
-0.125041
0.893516
1.41347
1.1121
0.882122
0.75174
0.639509
0.532888
0.426724
0.381412
0.307968
0.259611
0.213084
0.205587
0.141189
0.145997
0.0722455
0.0386632
-0.100559
0.770174
1.19936
1.01357
0.813802
0.720091
0.648106
0.57439
0.480967
0.45503
0.381166
0.330787
0.280741
0.268212
0.196567
0.195073
0.113582
0.060273
-0.075997
0.64446
1.05836
0.965496
0.746498
0.66101
0.620591
0.576943
0.487405
0.479318
0.412998
0.36546
0.317848
0.294358
0.219608
0.221479
0.141794
0.0805471
-0.0546876
0.702247
0.310631
0.0386201
-0.012501
-0.0108741
-0.00592793
-0.00201233
-0.00222941
0.000407285
-0.00035183
0.000658323
-0.00104966
-0.000521247
-0.000589986
0.001461
-0.00271178
0.00708351
-0.130893
1.85198
1.37095
0.656649
0.323833
0.165612
0.0945956
0.0678282
0.0499942
0.0472745
0.036063
0.0310224
0.0188856
0.016649
0.00957901
0.013377
-0.0213352
0.0233252
-0.169246
1.59574
1.66405
1.048
0.675642
0.43576
0.285865
0.205753
0.153319
0.134711
0.105205
0.0884971
0.0600709
0.0538633
0.0350382
0.038065
-0.0217843
0.00697137
-0.162377
1.15304
1.56241
1.17348
0.897927
0.676807
0.501265
0.383028
0.294672
0.255717
0.203146
0.170743
0.120051
0.107752
0.0750983
0.0705737
-0.00967632
-0.00239265
-0.157208
0.834849
1.34218
1.10219
0.900762
0.746543
0.620538
0.520142
0.426273
0.381068
0.311785
0.268891
0.19319
0.173317
0.128451
0.108374
0.0138608
0.00186189
-0.15255
0.670135
1.19905
1.07609
0.881558
0.74023
0.64638
0.572507
0.491098
0.456827
0.385097
0.349108
0.253983
0.230578
0.184512
0.147077
0.0409347
0.0180922
-0.14394
0.539605
0.950691
0.910133
0.745411
0.636292
0.580053
0.533603
0.471346
0.462925
0.402275
0.391216
0.285562
0.253115
0.213805
0.163081
0.0506709
0.0236688
-0.128197
0.770814
0.325459
0.042267
-0.0118931
-0.0105128
-0.00579854
-0.00372555
-0.00142097
-1.19776e-05
-0.000900358
0.00271186
-0.00199873
-0.00147051
0.000441644
0.000477606
-0.00591612
0.00959304
-0.106224
1.90623
1.38572
0.658606
0.319433
0.164134
0.09322
0.0633112
0.0547222
0.0485604
0.0381689
0.0390456
0.0178403
0.0134679
0.0171379
0.00743101
-0.0151979
0.0265033
-0.110151
1.77989
1.73876
1.05865
0.665718
0.433055
0.282621
0.19951
0.16358
0.137926
0.111971
0.101801
0.0595589
0.046991
0.0499124
0.0247833
-0.0103722
0.0243679
-0.0951343
1.29157
1.58866
1.14327
0.857558
0.656046
0.484647
0.370981
0.311694
0.261017
0.217156
0.188775
0.1201
0.0975043
0.0962302
0.0517041
0.00516265
0.0267235
-0.0850293
1.01732
1.4321
1.11567
0.889255
0.747537
0.609567
0.506743
0.44928
0.383417
0.331326
0.289551
0.190397
0.161106
0.153723
0.0860957
0.030445
0.0345796
-0.0742624
0.700655
1.21268
0.994838
0.768502
0.677343
0.602253
0.546649
0.523211
0.458116
0.412881
0.373155
0.243497
0.218527
0.212523
0.122616
0.0652546
0.0464752
-0.0715753
0.63751
1.10593
1.01555
0.802662
0.694787
0.601633
0.538573
0.524241
0.455671
0.427791
0.417028
0.267947
0.244441
0.24921
0.133505
0.0785958
0.0543129
-0.0855598
0.722789
0.307194
0.039502
-0.0123737
-0.0117357
-0.00505778
-0.00270239
-0.0019256
0.00103248
-0.000555801
0.000199829
-0.00172041
-0.000203039
-0.00203263
-0.000745605
-0.00233956
-0.00168767
-0.104742
1.82052
1.38992
0.665063
0.320242
0.160812
0.0965537
0.0659644
0.0523206
0.0498262
0.0355949
0.0288178
0.017552
0.0162551
0.00760172
0.00460715
-0.00683674
-0.00285798
-0.135874
1.71577
1.73319
1.05706
0.662864
0.426363
0.288156
0.201831
0.157889
0.138238
0.103369
0.0832603
0.0585633
0.0512043
0.0331239
0.0237502
-0.00143388
-0.0116371
-0.131391
1.18531
1.6213
1.18199
0.878916
0.663033
0.503119
0.375893
0.302653
0.261362
0.199881
0.161057
0.118383
0.103104
0.0719215
0.0553391
0.0159421
-0.0140225
-0.114623
0.982909
1.45463
1.17055
0.940153
0.77456
0.641475
0.507034
0.427669
0.380555
0.300282
0.248998
0.188556
0.166359
0.12176
0.0953918
0.0454218
-0.00981082
-0.0902883
0.746165
1.24221
1.08391
0.870624
0.731119
0.64143
0.539194
0.489834
0.463186
0.379267
0.324697
0.252907
0.227939
0.173028
0.140833
0.0758591
0.00183018
-0.0548763
0.642598
1.07722
1.05901
0.865264
0.724646
0.630944
0.517785
0.473079
0.464635
0.389046
0.34446
0.275732
0.256553
0.200039
0.167588
0.097043
-0.00191234
-0.0240008
0.737765
0.307269
0.0382526
-0.0126635
-0.0118159
-0.00551312
-0.0016746
-0.00138354
-0.00178804
-0.000115923
-0.000781734
0.00036705
-0.00126558
-0.00318399
0.000984074
-0.00703829
0.00565111
-0.107392
1.77879
1.3572
0.650953
0.31657
0.163886
0.0977143
0.0693106
0.051001
0.0408572
0.0376558
0.0295755
0.0259681
0.0156877
0.00606149
0.0156175
-0.0161485
0.0304284
-0.116124
1.70549
1.71936
1.04519
0.654635
0.431693
0.2932
0.208944
0.152081
0.123355
0.107102
0.0871677
0.0734965
0.0508634
0.0311192
0.0429693
-0.0115635
0.0385334
-0.0857932
1.11893
1.56271
1.13174
0.843814
0.661424
0.510581
0.389841
0.290541
0.239036
0.204271
0.16838
0.140269
0.101893
0.0713633
0.0809884
0.00807095
0.0518397
-0.0517843
1.0136
1.44049
1.11513
0.872315
0.756302
0.651825
0.540407
0.420841
0.35856
0.312345
0.263535
0.220614
0.163323
0.123345
0.125986
0.0412382
0.0731868
-0.0220662
0.821654
1.21865
0.961493
0.739819
0.698184
0.662728
0.59301
0.479807
0.426001
0.384052
0.336829
0.287443
0.21383
0.178435
0.168054
0.0832004
0.105409
-0.00162576
0.637171
1.11781
0.989997
0.741956
0.665318
0.619685
0.567016
0.462755
0.430185
0.407156
0.369717
0.327907
0.228476
0.199521
0.191989
0.105599
0.126293
0.0264378
0.722846
0.309195
0.0394967
-0.0131355
-0.0109606
-0.00434223
-0.00304604
-0.00188034
0.0013823
3.96628e-07
0.000352977
-0.000827657
-0.000139608
-0.00324573
0.00103271
-0.00303905
0.00528163
-0.106719
1.83775
1.39609
0.671444
0.321648
0.167066
0.100765
0.0655051
0.0517935
0.0508817
0.0364861
0.0297919
0.0203707
0.0176145
0.00441314
0.0150777
-0.0111787
0.0262146
-0.120439
1.71828
1.75104
1.06432
0.66111
0.435544
0.294664
0.20129
0.157208
0.140543
0.104207
0.0849187
0.0625631
0.0534817
0.0281552
0.0424573
-0.00350135
0.0256519
-0.0939293
1.2415
1.6645
1.20776
0.893374
0.690172
0.520283
0.379502
0.303778
0.265573
0.200143
0.16271
0.12322
0.10407
0.0674414
0.0803558
0.0189208
0.0336244
-0.0685072
0.908345
1.40574
1.10955
0.870362
0.747664
0.631076
0.506373
0.436024
0.394074
0.305583
0.25198
0.195356
0.163317
0.118329
0.125637
0.0529036
0.0559441
-0.0451713
0.807911
1.2788
1.07707
0.839916
0.756107
0.674971
0.568242
0.513586
0.481069
0.382474
0.322094
0.255988
0.212667
0.168109
0.172673
0.0894089
0.0919454
-0.0211318
0.546514
1.09927
1.05585
0.79646
0.68656
0.606781
0.504658
0.472608
0.478691
0.400353
0.353259
0.293888
0.242684
0.195242
0.198854
0.118937
0.120929
0.0087055
0.733836
0.305143
0.0365295
-0.0132882
-0.0115992
-0.00519475
-0.00126317
-0.0022592
-0.00116466
-0.00168115
-0.00203549
-0.00100512
-0.000228599
-0.00189716
0.00132676
-0.00342717
0.00274223
-0.100866
1.90065
1.39343
0.66259
0.320461
0.162587
0.096917
0.0688846
0.0472297
0.0413447
0.0329327
0.0269958
0.0255677
0.0239317
0.0148902
0.0216489
-0.00459731
0.0247914
-0.115828
1.74446
1.74547
1.06615
0.666766
0.426656
0.286594
0.20315
0.142975
0.120531
0.0980544
0.0836067
0.0764319
0.0695817
0.0497458
0.0573112
0.00886172
0.0338104
-0.0899305
1.23313
1.63038
1.19975
0.896298
0.675927
0.512123
0.382887
0.277217
0.231252
0.189108
0.16383
0.147861
0.133614
0.101174
0.106356
0.036472
0.0516704
-0.0552004
0.964336
1.40176
1.10382
0.868295
0.723846
0.618994
0.506857
0.391205
0.340487
0.286095
0.256248
0.23258
0.210437
0.16535
0.162903
0.0763419
0.0789461
-0.0179921
0.840784
1.29566
1.12449
0.896658
0.764833
0.682471
0.577237
0.449289
0.398163
0.340397
0.320757
0.300529
0.279817
0.23313
0.218371
0.119417
0.117018
0.0123332
0.634028
1.08555
1.00409
0.749138
0.609359
0.57135
0.522397
0.429938
0.409931
0.359196
0.359649
0.344878
0.315837
0.279476
0.258805
0.152409
0.151343
0.0540754
0.716452
0.30307
0.0381082
-0.0122237
-0.0107914
-0.00455656
-0.00189129
-0.00164771
-0.001025
6.71167e-05
-0.00141999
-0.000113487
-0.000523691
-0.00180315
0.00187874
-0.00213925
0.00140884
-0.0811196
1.84887
1.38185
0.661693
0.320609
0.164988
0.098767
0.0680196
0.0499209
0.0427669
0.0376799
0.027948
0.0258735
0.0198158
0.0116926
0.0190481
-0.00460442
0.0130387
-0.0963953
1.63981
1.72508
1.08402
0.684041
0.444007
0.296549
0.206352
0.150033
0.125386
0.106282
0.0851256
0.0753005
0.060743
0.0434494
0.0523264
0.00695587
0.02072
-0.0797689
1.21206
1.59371
1.16487
0.870769
0.675339
0.513645
0.384214
0.285882
0.238787
0.199611
0.164867
0.144553
0.118985
0.0921202
0.0982121
0.0347814
0.0332864
-0.0362585
0.894264
1.45698
1.17676
0.92715
0.783983
0.650241
0.52487
0.411876
0.356649
0.301874
0.256678
0.227752
0.188147
0.154528
0.151758
0.074922
0.054138
0.018807
0.724356
1.19925
1.01722
0.826771
0.761897
0.674935
0.575847
0.466629
0.418625
0.360261
0.316034
0.294658
0.248696
0.219001
0.209907
0.121145
0.0854329
0.0684784
0.509616
1.0054
0.987674
0.797752
0.718177
0.645764
0.588386
0.490418
0.44279
0.38261
0.339522
0.329549
0.274382
0.250123
0.239308
0.142767
0.117665
0.123614
0.699508
0.303506
0.0374625
-0.0128762
-0.012296
-0.00440317
-0.00277392
-0.00163766
0.000641413
0.000515854
-0.00216914
0.00155579
-0.000980939
-0.00516948
0.00156084
-0.00173821
-0.0111409
0.0660497
1.84422
1.38659
0.669041
0.321537
0.160026
0.0996445
0.0670847
0.0537396
0.0501391
0.0408051
0.0265757
0.0346027
0.0203558
0.0120308
0.0284012
0.029333
0.00332631
0.170757
1.61783
1.67837
1.04848
0.657883
0.422955
0.293158
0.204295
0.159616
0.139436
0.112064
0.0821512
0.0907864
0.0576925
0.0474132
0.0682431
0.0725015
0.0600748
0.267815
1.16165
1.58941
1.18835
0.879002
0.664938
0.51561
0.383693
0.304342
0.261998
0.208976
0.160643
0.167846
0.109402
0.0988008
0.124194
0.119434
0.132154
0.342416
0.963216
1.41121
1.11893
0.863354
0.722281
0.630341
0.512253
0.434116
0.387067
0.31202
0.249127
0.258846
0.169138
0.158254
0.194834
0.16219
0.210059
0.409753
0.633269
1.23528
1.11093
0.850473
0.710832
0.655227
0.554711
0.490014
0.456745
0.376368
0.307447
0.339941
0.221639
0.208088
0.270774
0.20289
0.278296
0.479044
0.595819
1.12065
1.06178
0.788971
0.622646
0.578949
0.499433
0.465178
0.455975
0.386893
0.32485
0.390031
0.252781
0.247505
0.323802
0.218299
0.322297
0.560275
0.651486
0.292272
0.0367834
-0.0129209
-0.0124589
-0.00547417
-0.00200606
-0.000977291
0.000833853
-0.000163727
-0.00205765
0.000277616
0.000643455
-0.00212812
0.00141878
0.00121509
0.000679372
-0.0864291
1.87782
1.37546
0.661138
0.317685
0.159286
0.0973673
0.0701163
0.0548709
0.0488488
0.0352915
0.0237818
0.0256147
0.0216283
0.00791406
0.0157657
0.000879052
6.29848e-05
-0.0990441
1.60132
1.65879
1.02908
0.645686
0.419646
0.291546
0.211742
0.16167
0.135958
0.100165
0.0765413
0.0737479
0.0621541
0.0349215
0.0454848
0.0138837
0.00119874
-0.09444
1.17414
1.59704
1.17608
0.867844
0.662815
0.517166
0.39831
0.310297
0.258526
0.190587
0.151956
0.141851
0.119147
0.0769188
0.0899605
0.0336797
0.0137408
-0.0850394
0.923761
1.37969
1.10666
0.878569
0.75039
0.655203
0.543849
0.444218
0.382539
0.286121
0.236023
0.223244
0.186311
0.129938
0.147192
0.0627442
0.0322139
-0.0663121
0.734788
1.18873
1.03718
0.795448
0.688179
0.649297
0.584541
0.50895
0.45935
0.34522
0.28956
0.289356
0.24415
0.181944
0.208213
0.100899
0.0495354
-0.0377793
0.640152
1.0674
1.01776
0.784541
0.675259
0.652023
0.59358
0.522904
0.500564
0.378951
0.315141
0.337286
0.268653
0.20563
0.246463
0.124888
0.0480684
-0.0224609
0.72911
0.306123
0.0411966
-0.0110818
-0.0109451
-0.00538807
-0.00175059
-0.00177419
-0.000144607
-0.000732247
-0.000775003
-0.00169346
0.000538486
-0.00154612
0.000186539
-0.000673113
0.00620499
-0.119028
1.78579
1.37428
0.661653
0.320403
0.162777
0.0958385
0.0691719
0.0515613
0.0467099
0.0356993
0.0290967
0.0210423
0.0248683
0.011697
0.0170261
-0.0075136
0.0308877
-0.161458
1.68303
1.72692
1.06777
0.669326
0.431346
0.288624
0.208023
0.154959
0.133459
0.103733
0.0861732
0.0666691
0.0703355
0.0416883
0.0489985
0.00523766
0.0268332
-0.146403
1.16079
1.59422
1.16691
0.866116
0.662599
0.50527
0.388134
0.297097
0.254507
0.200073
0.16676
0.131796
0.132418
0.0876919
0.0912177
0.0324417
0.0284028
-0.127124
0.892813
1.41283
1.11392
0.880864
0.752121
0.640107
0.531653
0.427885
0.379287
0.307411
0.260917
0.21026
0.204054
0.145037
0.139832
0.0721789
0.0399965
-0.103324
0.768968
1.1988
1.01602
0.811767
0.720833
0.648426
0.573179
0.483317
0.451809
0.380283
0.332719
0.276425
0.266876
0.200758
0.187533
0.114932
0.0579247
-0.0827052
0.643238
1.05663
0.968646
0.745094
0.662518
0.620568
0.574863
0.490057
0.475466
0.412572
0.368512
0.31134
0.293061
0.224291
0.212307
0.147087
0.0754142
-0.0793866
0.702276
0.310613
0.0385947
-0.0123631
-0.0110723
-0.00586598
-0.00181016
-0.00249775
0.000443445
4.21193e-05
0.000167878
-0.000870289
-0.000195882
-0.00108051
0.00158709
-0.0021402
0.00687521
-0.131835
1.85208
1.37064
0.656752
0.324221
0.164918
0.0949279
0.0682619
0.0490588
0.0473854
0.0370973
0.0293045
0.0194008
0.0173182
0.00774673
0.0135719
-0.0204397
0.0207991
-0.172326
1.59601
1.6632
1.04839
0.676257
0.43449
0.286716
0.206194
0.15169
0.135046
0.106661
0.0855185
0.0610674
0.0546316
0.0318376
0.0384889
-0.0207579
0.00166056
-0.167646
1.15366
1.56061
1.17434
0.898807
0.674784
0.502912
0.383331
0.292249
0.256552
0.204894
0.166409
0.121661
0.108549
0.070284
0.0715396
-0.00882136
-0.0102398
-0.164904
0.83621
1.33889
1.10355
0.90197
0.743562
0.623483
0.520453
0.42277
0.382548
0.313792
0.263014
0.195524
0.174134
0.121765
0.110392
0.0144433
-0.00917481
-0.161944
0.672343
1.19367
1.07796
0.883499
0.735897
0.650442
0.572978
0.486617
0.4595
0.387427
0.341288
0.257172
0.231368
0.175406
0.150853
0.0420289
0.00220925
-0.154459
0.543217
0.943291
0.910682
0.748505
0.631488
0.58554
0.534611
0.464757
0.466
0.406028
0.381477
0.288888
0.254814
0.202143
0.167913
0.0541724
0.00255887
-0.143025
0.770845
0.325407
0.0422344
-0.0117469
-0.0107208
-0.00562472
-0.00380936
-0.00136716
-7.31856e-06
-0.00097078
0.00289749
-0.00231523
-0.00130387
0.000619058
0.000217565
-0.00583856
0.00958317
-0.108781
1.90639
1.38529
0.658605
0.319874
0.163481
0.0938076
0.0629909
0.05485
0.0485395
0.0378855
0.0395098
0.0168069
0.0140355
0.0172126
0.00665029
-0.0159895
0.0268328
-0.116196
1.78031
1.73767
1.05885
0.666417
0.431952
0.283763
0.198843
0.163828
0.137865
0.111409
0.102496
0.0578118
0.0480575
0.04967
0.0236259
-0.0117759
0.0235443
-0.101789
1.29257
1.58646
1.14382
0.858482
0.654469
0.486421
0.369917
0.312107
0.260939
0.216313
0.189585
0.117633
0.099053
0.095778
0.0500182
0.0031939
0.0247896
-0.091676
1.01922
1.42836
1.11669
0.890255
0.745537
0.612096
0.505154
0.450095
0.383272
0.330314
0.290354
0.187164
0.163016
0.153327
0.0839418
0.0276171
0.0317652
-0.0798052
0.703617
1.20728
0.996506
0.769254
0.674954
0.605378
0.544364
0.524703
0.457833
0.41222
0.373778
0.239388
0.220644
0.212057
0.120728
0.0610619
0.0420638
-0.0735971
0.642001
1.09902
1.0169
0.802509
0.693309
0.605086
0.535534
0.527241
0.454155
0.427712
0.418001
0.262641
0.246247
0.248749
0.133532
0.073243
0.0448429
-0.0825417
0.722793
0.307204
0.0394918
-0.012368
-0.0116699
-0.00521657
-0.00250576
-0.00202508
0.000958449
-0.000329836
3.79111e-05
-0.00170903
-0.000164364
-0.00193015
-0.000871964
-0.00248867
-0.00140662
-0.106631
1.82054
1.3899
0.665033
0.320326
0.160931
0.0961127
0.0665574
0.0519274
0.0496304
0.0362094
0.0282544
0.0174719
0.0163801
0.0076669
0.00409275
-0.00777633
-0.00168207
-0.140835
1.71583
1.73311
1.057
0.663093
0.426451
0.287476
0.202839
0.157067
0.138043
0.10429
0.0822444
0.0584116
0.0514165
0.0330758
0.0228777
-0.00315106
-0.0103131
-0.137951
1.18539
1.62116
1.18185
0.879406
0.66304
0.502225
0.377367
0.301229
0.261275
0.20108
0.159511
0.11821
0.10332
0.0717297
0.0541031
0.013456
-0.0128594
-0.122167
0.983044
1.45444
1.17024
0.940977
0.774336
0.640361
0.509227
0.425479
0.380703
0.301771
0.246789
0.188503
0.166395
0.121455
0.093866
0.0424576
-0.00897185
-0.0986675
0.746527
1.24165
1.08313
0.872349
0.730926
0.639817
0.542021
0.486654
0.463816
0.381167
0.321727
0.253173
0.227607
0.17248
0.139197
0.0728266
0.00211569
-0.0646103
0.642968
1.07714
1.05719
0.867111
0.724505
0.629406
0.522148
0.468663
0.465597
0.391358
0.34051
0.27655
0.255792
0.19896
0.166182
0.0946801
-0.00251288
-0.0370347
0.737767
0.307278
0.0382034
-0.0126297
-0.0117389
-0.0057092
-0.00150943
-0.00142807
-0.00190114
-1.85838e-05
-0.000848572
0.00032607
-0.00129077
-0.00305035
0.00084356
-0.00732823
0.00583819
-0.107175
1.77885
1.35724
0.650676
0.316827
0.164002
0.0971272
0.0698785
0.0508136
0.0405389
0.0379775
0.0293253
0.025847
0.0156353
0.00648902
0.0151235
-0.0166234
0.0319031
-0.115934
1.7056
1.71944
1.04458
0.65522
0.431765
0.292233
0.209978
0.151644
0.122934
0.107655
0.0866938
0.0733756
0.0507504
0.0317689
0.0421332
-0.0123778
0.0415148
-0.0859322
1.11912
1.56288
1.13071
0.844863
0.661356
0.509208
0.391441
0.289731
0.238599
0.205079
0.167623
0.140248
0.101732
0.0720832
0.0799975
0.00684872
0.0560598
-0.0521126
1.01394
1.44062
1.11341
0.874035
0.756056
0.649986
0.542787
0.419522
0.358168
0.313447
0.262436
0.220739
0.163214
0.123922
0.124928
0.0396429
0.0785835
-0.0224646
0.821999
1.2192
0.958783
0.742201
0.69767
0.660373
0.596227
0.477843
0.42582
0.385435
0.335375
0.287739
0.21393
0.178719
0.166826
0.0814933
0.111567
-0.00282856
0.637625
1.11911
0.985841
0.745149
0.664676
0.616588
0.571118
0.459964
0.430306
0.408879
0.367883
0.328278
0.228966
0.199261
0.190552
0.104449
0.132374
0.0226627
0.722851
0.309207
0.0394149
-0.0130678
-0.010879
-0.00455646
-0.00287207
-0.00191234
0.0013264
0.000107986
0.000436109
-0.00101377
1.90858e-05
-0.0032161
0.000857785
-0.00286639
0.00532396
-0.106691
1.83784
1.3962
0.670998
0.32199
0.167226
0.100154
0.0660958
0.051685
0.0506997
0.0368475
0.0300038
0.0198284
0.0181328
0.00447738
0.0145044
-0.0105881
0.0261295
-0.119841
1.71853
1.75133
1.06334
0.661814
0.435664
0.293699
0.202379
0.156926
0.140299
0.104822
0.0851593
0.0617414
0.0543311
0.0282161
0.0415078
-0.00230234
0.0253452
-0.0930096
1.24199
1.66507
1.20602
0.894642
0.69011
0.518937
0.381189
0.303198
0.26532
0.201091
0.162852
0.122215
0.10519
0.0675192
0.0789586
0.0208688
0.0333666
-0.0682839
0.909235
1.40672
1.10665
0.872367
0.747187
0.629255
0.508819
0.435061
0.393847
0.306996
0.251896
0.194233
0.164685
0.118404
0.123858
0.0553259
0.0564806
-0.0470338
0.80901
1.28043
1.07312
0.843111
0.755127
0.672599
0.571315
0.512016
0.480935
0.38463
0.321702
0.254871
0.214392
0.167859
0.170802
0.0919163
0.0938035
-0.0251079
0.54795
1.10178
1.04975
0.800243
0.685069
0.60402
0.508753
0.47061
0.478135
0.403349
0.352663
0.292531
0.245239
0.19461
0.196854
0.121276
0.123687
0.0055056
0.73384
0.305121
0.0365903
-0.0133449
-0.0116271
-0.00504412
-0.00148744
-0.00204186
-0.00133953
-0.00162542
-0.00193345
-0.00124498
3.77848e-05
-0.00204419
0.00139547
-0.00333351
0.00271323
-0.100896
1.9006
1.3933
0.66295
0.32026
0.162577
0.0972665
0.0682486
0.0478748
0.0407858
0.0331907
0.0273012
0.0248813
0.0248246
0.0144462
0.0219552
-0.00424702
0.0248192
-0.115211
1.7443
1.74511
1.06694
0.666378
0.426818
0.287036
0.202139
0.144078
0.11949
0.0986252
0.0840515
0.0753412
0.0711817
0.0489459
0.0579519
0.00959295
0.0337169
-0.0882057
1.23273
1.62979
1.20111
0.895579
0.67645
0.512597
0.381509
0.27884
0.229616
0.19009
0.164368
0.146399
0.136018
0.100056
0.107308
0.0378861
0.0511069
-0.0522347
0.963643
1.40082
1.10597
0.867073
0.725073
0.619462
0.505003
0.393461
0.338025
0.28762
0.256756
0.230714
0.213733
0.163947
0.164106
0.0785483
0.0777599
-0.0141478
0.83971
1.29447
1.12745
0.89472
0.766949
0.682851
0.575218
0.452313
0.394503
0.342698
0.320953
0.298122
0.284042
0.231491
0.219855
0.122343
0.115273
0.0171395
0.63267
1.08384
1.0079
0.746486
0.613023
0.571486
0.51987
0.434063
0.404774
0.362555
0.359673
0.341714
0.320959
0.277447
0.26087
0.155922
0.14859
0.0596132
0.716475
0.303031
0.0381465
-0.0122335
-0.0108545
-0.00442062
-0.00203278
-0.00154755
-0.00104522
3.00169e-05
-0.00140196
-7.63984e-05
-0.000528547
-0.00192989
0.00228321
-0.00258386
0.00138819
-0.0789174
1.8489
1.38166
0.661914
0.320515
0.164864
0.0991695
0.0675739
0.0502669
0.0427285
0.0375947
0.0280959
0.0261161
0.0198238
0.0116546
0.0201921
-0.005295
0.0132122
-0.0918366
1.63989
1.7246
1.08452
0.683826
0.443897
0.297201
0.205567
0.150691
0.12527
0.106186
0.0854255
0.0758025
0.0607146
0.0436819
0.0541835
0.00593467
0.0221684
-0.0734586
1.21223
1.59283
1.16572
0.870315
0.675314
0.51455
0.383046
0.286931
0.238571
0.199524
0.165326
0.14537
0.118894
0.0927177
0.100889
0.0333658
0.0358288
-0.0281265
0.894384
1.45546
1.17824
0.926423
0.784165
0.651427
0.523207
0.413368
0.356293
0.30177
0.25725
0.228907
0.188017
0.155492
0.155316
0.0730825
0.0577098
0.0282322
0.724675
1.19715
1.01907
0.825511
0.762456
0.676438
0.573822
0.468627
0.41805
0.360291
0.316603
0.295959
0.248635
0.220542
0.214151
0.118699
0.0907252
0.0783827
0.509791
1.00265
0.990201
0.79621
0.719447
0.647016
0.585813
0.492962
0.441837
0.382557
0.340172
0.331118
0.273889
0.25226
0.245231
0.138688
0.124016
0.134465
0.699556
0.303427
0.0375627
-0.0127945
-0.0126571
-0.00395122
-0.00297286
-0.0017329
0.000948835
0.000228617
-0.00224411
0.00190323
-0.00118374
-0.00540817
0.00214774
-0.00224023
-0.0111863
0.0709986
1.84431
1.38601
0.669806
0.32164
0.159019
0.101109
0.066374
0.0535002
0.0510832
0.039928
0.026513
0.0358543
0.0197328
0.011892
0.0302112
0.0292159
0.00336532
0.181189
1.61794
1.67688
1.05035
0.657889
0.421451
0.295769
0.20284
0.159447
0.140865
0.110531
0.0822842
0.0929285
0.0565299
0.0476902
0.0710403
0.0724542
0.0622139
0.280307
1.16206
1.58651
1.19159
0.878588
0.66299
0.519612
0.381286
0.304541
0.263827
0.206577
0.161148
0.170919
0.107653
0.0997055
0.128066
0.119343
0.136568
0.356621
0.963835
1.40621
1.12458
0.862473
0.720061
0.636008
0.508428
0.434951
0.389362
0.308374
0.25008
0.262943
0.166717
0.159749
0.19988
0.16189
0.216339
0.425097
0.634906
1.22738
1.11799
0.848222
0.708932
0.663281
0.549634
0.491881
0.459458
0.371154
0.30844
0.344824
0.218829
0.210157
0.276497
0.202917
0.286476
0.493445
0.597732
1.1099
1.07231
0.786001
0.619905
0.588354
0.492599
0.468761
0.459956
0.379651
0.326184
0.39529
0.24893
0.250797
0.329334
0.218054
0.333696
0.572561
0.651508
0.292252
0.0368196
-0.0128777
-0.0125678
-0.00535948
-0.00209103
-0.000888339
0.000765534
-0.000177375
-0.00197794
0.000121304
0.000945161
-0.00244227
0.00156282
0.00138715
0.000505028
-0.0834417
1.87786
1.37527
0.661457
0.317816
0.158987
0.0977482
0.0699474
0.0551711
0.0486581
0.0353323
0.0240846
0.0253582
0.0226284
0.00722739
0.0163348
0.00214944
-0.00103086
-0.0930453
1.60134
1.65824
1.02984
0.645888
0.419222
0.292211
0.211478
0.162265
0.135601
0.100329
0.0770037
0.0734906
0.0638065
0.0339616
0.0464917
0.0163238
-0.000190628
-0.0870904
1.17436
1.59582
1.17724
0.867919
0.662397
0.518125
0.397994
0.311284
0.257857
0.191042
0.152426
0.141714
0.121447
0.0757665
0.0913088
0.037563
0.012176
-0.0772676
0.923991
1.37772
1.1089
0.878257
0.74984
0.656305
0.543502
0.445968
0.3814
0.287078
0.236241
0.223202
0.189331
0.128527
0.148801
0.0680987
0.0310086
-0.0599987
0.735923
1.18514
1.03942
0.794894
0.688426
0.650377
0.583916
0.511401
0.45736
0.347563
0.28931
0.289296
0.248393
0.179694
0.209548
0.107749
0.0504565
-0.03567
0.641254
1.06347
1.02159
0.782498
0.675929
0.652738
0.593138
0.528161
0.496231
0.381864
0.315031
0.335657
0.275225
0.204702
0.245214
0.130878
0.0575815
-0.0236646
0.445038
0.831364
0.849623
0.702275
0.625863
0.582234
0.536237
0.427124
0.421491
0.374669
0.344916
0.321107
0.293819
0.217142
0.197403
0.143416
0.0825729
-0.026175
0.308401
0.638614
0.696875
0.671393
0.567408
0.436799
0.371698
0.30249
0.373328
0.362264
0.322178
0.306334
0.23033
0.175812
0.171077
0.117068
0.0564681
-0.0490774
0.129893
0.523134
0.636374
0.586576
0.553324
0.546431
0.43243
0.328628
0.387684
0.352651
0.29963
0.294063
0.200456
0.138886
0.118304
-0.0217918
-0.0617335
-0.0360041
0.125543
0.248669
0.391937
0.471145
0.464288
0.385888
0.253265
0.291355
0.327053
0.19891
0.224873
0.257089
0.125015
0.0437113
0.161848
0.08688
-0.0998227
-0.00801079
0.166605
0.317492
0.319282
0.27622
0.336472
0.432016
0.289945
0.2338
0.329536
0.242261
0.156114
0.254093
0.283144
0.12357
0.0678675
0.000393651
-0.195098
-0.0922098
0.175019
0.256045
0.242427
0.222174
0.175235
0.216129
0.209484
0.183827
0.158751
0.105843
0.208257
0.252598
0.127357
0.162528
0.13338
-0.113403
-0.156336
-0.0664553
0.00433153
0.151319
0.291038
0.199772
0.086728
0.123083
0.117807
0.139588
0.18171
0.145231
0.171758
0.153024
0.0936731
0.0548219
0.00115752
-0.0424577
-0.155951
-0.266631
0.123401
0.200551
0.176088
0.145172
0.130916
0.206749
0.201751
0.152765
0.174933
0.1124
0.0771272
0.0695459
0.0601542
0.139246
0.101978
0.0197638
-0.0928542
-0.227234
-0.0584033
0.0165521
0.0893574
0.0873195
0.06857
0.0908881
0.0214081
-0.0369108
0.0314598
-0.0151606
-0.0528952
-0.0723414
-0.1303
-0.101998
-0.0990804
-0.0676795
-0.0388922
-0.0319886
0.0171976
0.041606
0.089372
0.0320813
-0.122055
-0.142526
-0.147749
-0.0913279
0.0279383
-0.00175032
0.0254083
0.0165799
-0.117922
-0.165723
-0.0848953
0.00888125
0.00795296
-0.0137561
0.445393
0.843851
0.894054
0.757745
0.640206
0.59595
0.547663
0.467092
0.417251
0.325727
0.36473
0.277045
0.251343
0.255131
0.178351
0.0616191
0.00412914
-0.146393
0.284655
0.602582
0.761718
0.739476
0.603347
0.528956
0.44322
0.403339
0.411571
0.288898
0.325147
0.24667
0.119321
0.152237
0.144776
0.030671
-0.0410639
-0.138843
0.186831
0.526716
0.630786
0.559809
0.482939
0.406629
0.315685
0.343554
0.395737
0.296723
0.333116
0.340252
0.207635
0.203391
0.228703
0.0708538
-0.144965
-0.235945
0.106074
0.400971
0.517424
0.559381
0.561226
0.498707
0.383567
0.311638
0.305584
0.18912
0.167594
0.212496
0.114197
-0.023216
0.0231134
0.101315
-0.0932566
-0.2115
0.170246
0.30458
0.412483
0.447201
0.482619
0.429268
0.276179
0.248781
0.359564
0.319477
0.221238
0.260282
0.116509
-0.086082
-0.0343221
-0.00731348
-0.0588713
-0.140643
0.0840559
0.36364
0.461393
0.376774
0.292484
0.237655
0.241717
0.256096
0.216215
0.176165
0.156678
0.075983
0.0186905
-0.0382708
-0.106379
-0.0390104
-0.0403389
-0.179666
-0.00429323
0.268223
0.374747
0.279398
0.238745
0.210666
0.198027
0.16378
0.0487011
0.0170047
0.0726451
0.138497
0.089839
-0.00122445
0.0487556
0.0537156
-0.0390894
-0.108335
0.224583
0.275284
0.228905
0.143082
0.0920486
0.109132
0.129488
0.0956465
0.0879519
0.123635
0.109769
0.00170619
-0.0369598
-0.0117611
-0.0378713
-0.0269331
-0.00658215
-0.0662033
-0.0381548
-0.00988431
0.0746738
0.152291
0.195056
0.132469
0.0107663
-0.024858
-0.0186076
-0.0218528
0.0426037
0.0580439
0.00537524
-0.0645978
-0.109473
-0.0452823
-0.0471808
-0.0669124
0.0443733
0.0163776
0.0481228
-0.0364428
-0.142011
-0.0491786
0.0533664
0.133257
0.153131
0.018551
-0.104572
-0.16242
-0.149067
-0.0785317
-0.00786245
-0.0521215
-0.118667
-0.0357716
0.39074
0.830533
0.835674
0.645359
0.567973
0.525183
0.476407
0.515005
0.42406
0.38332
0.417254
0.255366
0.259665
0.305909
0.181138
0.12289
0.0233249
-0.11835
0.277529
0.64929
0.775287
0.673356
0.532126
0.519764
0.460982
0.507186
0.459471
0.36687
0.440262
0.284335
0.161432
0.244801
0.0934474
0.024052
-0.00210696
-0.237012
0.117591
0.472425
0.627843
0.616509
0.507475
0.443986
0.416841
0.425378
0.326662
0.244497
0.370913
0.390136
0.12072
0.152971
0.257872
0.0789458
-0.102265
-0.14922
0.125305
0.347167
0.483824
0.640599
0.627741
0.491059
0.261276
0.362615
0.344951
0.121413
0.273073
0.344641
0.168342
-0.0116179
0.0909432
0.183858
-0.205305
-0.205381
0.042463
0.259081
0.314093
0.458918
0.521109
0.386563
0.214546
0.289371
0.328874
0.123085
0.185829
0.280898
0.201084
0.115872
0.023828
-0.0316357
-0.138998
-0.0975664
0.205238
0.283043
0.319792
0.435771
0.457817
0.33102
0.227524
0.232341
0.13372
0.0623726
0.212629
0.191372
0.0484404
0.0607224
0.0436469
-0.0761063
-0.128424
-0.184021
-0.0718711
-0.0838054
0.117082
0.260999
0.272945
0.109448
0.0804956
0.206977
0.228639
0.250309
0.186565
0.0249255
-0.0529223
-0.0673875
0.00118204
0.0489216
0.0347585
-0.00663958
0.0585202
0.0991427
0.0941994
0.0503363
0.100891
0.132172
0.163403
0.166978
0.0626769
0.0268132
0.0242033
-0.0366655
-0.0617617
-0.0750738
-0.0370037
-0.0203085
-0.107706
-0.158792
0.173594
0.235319
0.100593
-0.0628674
-0.083414
-0.0226908
0.0783632
0.156401
0.153243
0.144087
0.140329
0.0193361
-0.0579858
-0.0321814
-0.0203864
-0.0648696
-0.127939
-0.0874314
-0.0733967
-0.0408846
0.0207151
0.0339856
-0.037821
-0.0388817
-0.0566082
-0.0786846
-0.0529183
-0.0223963
0.0122777
-0.0206452
-0.0813759
-0.163607
-0.14552
-0.0807094
-0.0873799
-0.061741
0.442539
0.800347
0.864502
0.720339
0.580011
0.529188
0.468071
0.443882
0.441405
0.394763
0.349373
0.299459
0.284022
0.20308
0.205498
0.0652216
-0.0436618
0.0214856
0.431376
0.772114
0.838514