/*--------------------------------*- C++ -*----------------------------------*\
| =========                 |                                                 |
| \\      /  F ield         | OpenFOAM: The Open Source CFD Toolbox           |
|  \\    /   O peration     | Version:  3.0.1                                 |
|   \\  /    A nd           | Web:      www.OpenFOAM.org                      |
|    \\/     M anipulation  |                                                 |
\*---------------------------------------------------------------------------*/
FoamFile
{
    version     2.0;
    format      ascii;
    class       volScalarField;
    location    "0.1";
    object      Uy_mode_1;
}
// * * * * * * * * * * * * * * * * * * * * * * * * * * * * * * * * * * * * * //

dimensions      [0 0 0 0 0 0 0];

internalField   nonuniform List<scalar> 
244500
(
0.346229
0.143373
0.0173086
-0.00645965
-0.00550101
-0.00287781
-0.00178184
8.00426e-05
-0.000328048
0.000197808
3.66359e-05
-0.00137731
0.000869398
-0.00106573
0.00153461
2.49864e-05
0.00282029
-0.0341923
0.881936
0.637532
0.306008
0.147219
0.0746223
0.0436705
0.0302189
0.0274421
0.0208363
0.0179962
0.0135805
0.00681355
0.0116515
0.00440743
0.00886214
-0.000859804
0.00504378
-0.0339982
0.84571
0.775126
0.478379
0.303457
0.197511
0.132574
0.0952879
0.0794296
0.0608187
0.0509548
0.039016
0.0257165
0.0313578
0.018615
0.0214217
0.00521387
0.000801592
-0.0231847
0.531366
0.711882
0.530427
0.394577
0.303008
0.232
0.181502
0.152563
0.1187
0.0988042
0.0754186
0.0541187
0.0575088
0.0413541
0.0384352
0.015872
0.00237413
-0.0142563
0.416468
0.601354
0.508178
0.415531
0.358759
0.302134
0.253606
0.220234
0.175467
0.150229
0.115953
0.0882579
0.0860582
0.0690727
0.0604474
0.0286076
0.00862809
-0.0045235
0.325008
0.518906
0.483393
0.387144
0.336066
0.292977
0.269849
0.254364
0.212001
0.1917
0.150046
0.122008
0.114657
0.0980291
0.0875301
0.0419406
0.0139047
-0.00371069
0.173444
0.441635
0.468074
0.357501
0.312432
0.275611
0.269772
0.267519
0.224158
0.208706
0.157361
0.129202
0.113379
0.109798
0.11018
0.051612
0.02938
-0.0135053
0.357571
0.142414
0.0173305
-0.00612806
-0.00559988
-0.00361998
-0.00168204
1.19404e-05
-0.000615081
-0.000508609
0.000431299
-0.00131066
0.000494029
-0.00185498
0.00174416
-0.00199841
0.000201471
-0.0375235
0.903841
0.640063
0.302146
0.146041
0.0735356
0.0415199
0.0311638
0.0282048
0.0204776
0.0167571
0.0156255
0.0082817
0.0110113
0.00477929
0.0106119
0.00493182
0.00157914
-0.00712194
0.802329
0.775885
0.472429
0.299345
0.193933
0.12917
0.0974097
0.0809301
0.0600368
0.0495111
0.0427239
0.0283412
0.029732
0.0196754
0.0238907
0.0157108
0.000645366
0.0147588
0.589193
0.761709
0.555358
0.406671
0.30338
0.228786
0.184866
0.15385
0.11546
0.0960834
0.0805029
0.0572634
0.0553865
0.0413583
0.0426768
0.0305634
0.00940282
0.0264079
0.45784
0.626776
0.496016
0.384142
0.323555
0.283871
0.258102
0.224945
0.173189
0.148327
0.125383
0.0920404
0.0861919
0.0668913
0.0653703
0.0464038
0.0265925
0.0322051
0.342673
0.571116
0.486028
0.380746
0.340208
0.314014
0.296712
0.25659
0.194324
0.175824
0.158831
0.120825
0.114268
0.0930344
0.0907771
0.0618143
0.0471665
0.0400135
0.235518
0.535814
0.478818
0.330847
0.268769
0.239094
0.248722
0.235371
0.188236
0.184423
0.178154
0.134279
0.118701
0.0961283
0.0979313
0.0639678
0.0685638
0.0528679
0.334727
0.14237
0.0162117
-0.00718609
-0.00557414
-0.00285635
-0.00138827
0.000250522
-0.000550214
-0.0013573
0.00150132
-0.00201412
0.000503946
-0.00303461
0.0036712
-0.00343364
0.0062564
-0.0495744
0.831802
0.624191
0.293368
0.137888
0.0719566
0.0431434
0.0305895
0.0270241
0.0180719
0.0123615
0.0169505
0.00447022
0.00781779
-0.000681756
0.0125814
-0.00784437
0.0187128
-0.052253
0.785917
0.772231
0.465122
0.285035
0.189608
0.130078
0.0940471
0.0764963
0.0526633
0.0401771
0.0423458
0.0207937
0.0218988
0.0105394
0.0251579
-0.00539287
0.0151312
-0.0292474
0.5319
0.71384
0.521754
0.378852
0.29715
0.229389
0.177293
0.145219
0.101437
0.0808362
0.0764325
0.0452847
0.0411537
0.0299009
0.0398862
0.00446066
0.0143987
-0.0182876
0.351566
0.573295
0.449633
0.349455
0.316173
0.273419
0.231487
0.199894
0.143194
0.120863
0.112852
0.0726021
0.0622505
0.0542369
0.0574944
0.0196699
0.0199237
-0.0117272
0.368103
0.606605
0.509875
0.369682
0.327583
0.29237
0.26887
0.244807
0.177065
0.15352
0.144921
0.0955813
0.0778236
0.07513
0.0748655
0.0311495
0.0362318
-0.0130523
0.163513
0.417514
0.401584
0.282009
0.257582
0.225032
0.221221
0.211068
0.148007
0.135383
0.144722
0.0975576
0.0776941
0.0816451
0.0859976
0.0338634
0.0531971
-0.0284542
0.328516
0.142571
0.0195292
-0.00660223
-0.00603002
-0.00332552
-0.000517804
2.35518e-05
-0.000529365
-0.00110408
0.000115536
-0.00208571
0.00169222
-0.00349979
0.0033557
-0.0046808
0.000267665
-0.0571656
0.820828
0.636792
0.315468
0.150239
0.076717
0.0456761
0.0344638
0.0266951
0.0179269
0.0133048
0.01255
0.00504957
0.0117373
-0.0036502
0.0116997
-0.0134161
0.0131119
-0.0691708
0.687719
0.786734
0.495042
0.302802
0.198127
0.137579
0.101585
0.0759259
0.0522317
0.0420446
0.0358929
0.0233589
0.0295476
0.00374166
0.0241139
-0.0201363
0.0192527
-0.0525639
0.483888
0.765326
0.570082
0.415005
0.321764
0.251327
0.19195
0.144466
0.100219
0.0823303
0.0685633
0.0510443
0.0552335
0.0194104
0.0401727
-0.0196341
0.0241898
-0.0400571
0.336666
0.642175
0.498283
0.387714
0.350537
0.316055
0.262003
0.203861
0.145029
0.121813
0.104481
0.0824495
0.0864753
0.0431359
0.0595384
-0.00895556
0.025634
-0.0280867
0.289142
0.556498
0.496062
0.417355
0.381474
0.346104
0.29624
0.233295
0.172259
0.147679
0.134429
0.110302
0.114952
0.0719096
0.07897
0.00997049
0.031453
-0.0311065
0.233933
0.465495
0.428369
0.35369
0.342086
0.319923
0.28277
0.210843
0.159468
0.141016
0.145439
0.126579
0.130849
0.0924075
0.0937923
0.0228359
0.043965
-0.0326589
0.345195
0.140649
0.017703
-0.00586818
-0.00531386
-0.00364431
-9.44436e-05
-0.000432247
-0.00065672
-0.000782714
0.00120159
-0.00123185
0.000974585
-0.00228935
0.000436449
-0.00377907
0.000952342
-0.0308402
0.820862
0.612243
0.290942
0.140714
0.0738408
0.0427714
0.0349528
0.0252549
0.0178908
0.0150127
0.0160277
0.00727087
0.0093013
0.00188935
0.00365619
0.00290431
0.00426702
-0.0213829
0.809193
0.780926
0.472023
0.29778
0.198069
0.134583
0.103445
0.0746401
0.0543005
0.0469812
0.0423222
0.0263809
0.0241592
0.0124413
0.0106354
0.0113551
0.0134337
-0.0109691
0.582348
0.723037
0.502737
0.373136
0.295391
0.233461
0.190177
0.141424
0.104612
0.0922643
0.0794201
0.0550548
0.0474343
0.0273652
0.0256362
0.0199539
0.0314024
-0.00400278
0.47915
0.639874
0.473693
0.377903
0.332915
0.294857
0.261686
0.203993
0.158236
0.144039
0.126635
0.0908287
0.0809373
0.0445013
0.048551
0.0294642
0.0526311
0.00201897
0.359504
0.554958
0.416486
0.336346
0.320892
0.311419
0.300463
0.234131
0.184355
0.173505
0.164401
0.123958
0.120556
0.061628
0.0749457
0.0381711
0.0668858
0.0108416
0.276423
0.49348
0.412123
0.32093
0.281291
0.264147
0.288035
0.231577
0.193589
0.179284
0.18279
0.135803
0.15065
0.0799009
0.099398
0.062169
0.0772926
0.00568435
0.354866
0.130813
0.0141365
-0.0066949
-0.00611551
-0.00370897
-0.00144504
-0.00029855
0.000946405
-0.000280146
-0.000468942
-0.000926744
-0.00031667
-0.00142921
-0.000639051
-0.00106234
-0.000261212
-0.0292894
0.826327
0.611838
0.287806
0.137308
0.0704137
0.0422716
0.0322056
0.027205
0.0242826
0.0155075
0.0114233
0.00839733
0.00785215
0.00451666
0.00332884
0.0051521
-0.000489315
-0.0226868
0.687841
0.74377
0.462614
0.286891
0.186857
0.130752
0.100087
0.0804521
0.0666483
0.045334
0.0344638
0.0271745
0.0237597
0.0177894
0.0133785
0.0152514
0.00447054
-0.0210998
0.586575
0.714951
0.503089
0.36485
0.282954
0.2275
0.186711
0.153135
0.125675
0.0876716
0.0678131
0.0542077
0.0467213
0.0367256
0.030783
0.0284897
0.0179314
-0.0181623
0.419615
0.652656
0.491662
0.357886
0.303044
0.283822
0.263829
0.229489
0.192399
0.135958
0.106932
0.0857594
0.0745028
0.0577489
0.0537158
0.0442949
0.0348961
-0.00776097
0.272605
0.566155
0.432002
0.283028
0.251448
0.278953
0.294429
0.27065
0.2359
0.168966
0.139224
0.114306
0.102211
0.0771567
0.0768855
0.0603477
0.0477718
0.00775821
0.28379
0.503841
0.446782
0.30748
0.267248
0.282258
0.294724
0.260388
0.231814
0.166489
0.146742
0.129749
0.121524
0.0889398
0.0999293
0.080227
0.0642309
0.0401987
0.340249
0.133853
0.0149893
-0.00591699
-0.00490344
-0.00239404
-0.000370544
-0.00114756
-0.000829384
-0.000404339
-0.000530551
-0.000569406
0.000116377
-0.00158588
-0.000812207
-0.0001545
0.00277766
-0.0444169
0.764201
0.588845
0.298423
0.152087
0.0777527
0.0443521
0.0314591
0.0205994
0.0174608
0.0150317
0.011751
0.00851206
0.00787495
0.000416191
0.00175521
-0.000217715
0.00709145
-0.0546547
0.694718
0.780623
0.503698
0.320071
0.202133
0.132372
0.0933238
0.0636386
0.0528653
0.0437892
0.0354877
0.0273582
0.0240851
0.00925652
0.0108455
0.00608701
0.00560402
-0.0533484
0.469803
0.676452
0.51671
0.395972
0.304759
0.234775
0.177835
0.125525
0.103894
0.0846108
0.0691872
0.0544578
0.047832
0.0242283
0.0266165
0.0174145
0.00923649
-0.0509372
0.465522
0.675493
0.497452
0.373851
0.327009
0.297947
0.248737
0.182024
0.154651
0.126742
0.105667
0.0844725
0.0755916
0.0422217
0.0470184
0.0349831
0.0166682
-0.0448066
0.366756
0.582618
0.470751
0.364527
0.338287
0.329426
0.286104
0.209998
0.186694
0.157944
0.136918
0.112464
0.104638
0.0621432
0.0686955
0.0571891
0.0268392
-0.0364518
0.289106
0.468392
0.3984
0.31579
0.303998
0.299058
0.265161
0.190836
0.181485
0.155765
0.135583
0.10853
0.107983
0.0656288
0.0812568
0.0810509
0.0332328
-0.0263239
0.319048
0.142938
0.0205152
-0.0046767
-0.00514056
-0.00189776
-0.00140728
-0.000934637
0.000540437
-0.000671661
-0.000364292
-0.000494928
-5.31754e-05
-0.00353093
-0.000362052
-0.00032532
-0.000576045
-0.0470265
0.832177
0.617929
0.292919
0.141609
0.0731259
0.0458274
0.0301417
0.0235491
0.022456
0.0136899
0.0114473
0.00900758
0.00773993
-0.00262047
0.00746703
0.00571966
0.000369137
-0.0410105
0.718755
0.747994
0.482219
0.306958
0.201603
0.138679
0.0940623
0.0717943
0.0620586
0.0409089
0.0336651
0.0267141
0.0214534
0.00417404
0.0207342
0.0165345
-0.00394357
-0.0256541
0.507463
0.718093
0.547432
0.401399
0.310749
0.240955
0.175566
0.137721
0.117501
0.0803267
0.0656028
0.0522198
0.0400833
0.0157106
0.0403661
0.0292261
0.0014972
-0.0176983
0.263922
0.625385
0.535761
0.412544
0.359012
0.309473
0.240318
0.196586
0.17346
0.122561
0.101297
0.082137
0.0608899
0.0267215
0.0657132
0.0420729
0.00983025
-0.00422009
0.270434
0.496021
0.462473
0.36692
0.34951
0.325872
0.265687
0.228399
0.215009
0.158745
0.134587
0.113844
0.0848138
0.0348134
0.0905947
0.0564223
0.0114892
0.0154086
0.171391
0.445813
0.472042
0.348875
0.319772
0.299409
0.247438
0.223695
0.233416
0.176265
0.145489
0.125998
0.0905061
0.026796
0.105142
0.0689084
-0.00208757
0.0171859
0.310629
0.141149
0.0176269
-0.00548107
-0.00476554
-0.00277835
-0.00118655
-0.00157122
2.39675e-05
0.000793196
-0.00274964
0.00247905
0.000273586
-0.00425904
0.000316181
0.00195508
0.00280465
-0.142643
0.90901
0.644623
0.296193
0.143322
0.0737458
0.0413468
0.028652
0.0206938
0.0212534
0.0177324
0.00458409
0.0156054
0.00422771
-0.0136695
0.00241154
-0.00996757
-0.0180602
-0.198438
0.737714
0.749033
0.45857
0.295892
0.192639
0.124092
0.0866545
0.0641751
0.0611585
0.0481006
0.0255882
0.0382215
0.0152273
-0.0178895
0.0109763
-0.0159681
-0.0771077
-0.204712
0.622227
0.764616
0.520395
0.391018
0.301052
0.222053
0.163669
0.123835
0.117526
0.0891274
0.0589
0.0707181
0.0331776
-0.0177726
0.0262392
-0.0175782
-0.127505
-0.215594
0.436626
0.609267
0.451362
0.379438
0.326284
0.266911
0.210189
0.168452
0.174132
0.131546
0.0983281
0.114679
0.0560723
-0.0125076
0.0494011
-0.0141072
-0.17012
-0.214633
0.366834
0.550703
0.43602
0.372313
0.322229
0.274145
0.219155
0.179698
0.210841
0.156138
0.119804
0.159266
0.074209
-0.0123564
0.0760737
-0.00352655
-0.210364
-0.194878
0.417199
0.52556
0.386814
0.325139
0.294632
0.277889
0.224763
0.175206
0.233181
0.165802
0.117109
0.199254
0.089525
-0.0107007
0.101797
0.00302183
-0.239981
-0.166792
0.387393
0.153182
0.0210112
-0.00452703
-0.00451817
-0.00141133
-0.00266109
-0.000700571
-0.00108847
-0.000309333
0.000647398
-0.000670794
-0.000775695
-0.00302508
0.00110635
-0.00261999
-0.00525247
-0.0250937
0.812024
0.621273
0.295819
0.145244
0.0754029
0.045357
0.0247335
0.0240206
0.018795
0.01782
0.0167696
0.0098914
0.00759412
0.00279088
0.0145751
0.00323276
-0.00429772
0.00978712
0.865565
0.830661
0.492558
0.307371
0.19927
0.131574
0.0811213
0.0715244
0.0569756
0.0516817
0.0449457
0.0296599
0.0230318
0.0159351
0.0333519
0.0107281
0.00234618
0.0314176
0.48855
0.678669
0.503384
0.391955
0.308189
0.229509
0.154829
0.136059
0.110133
0.0996406
0.0847516
0.0583685
0.0443795
0.036501
0.0572944
0.0223767
0.0149283
0.0592188
0.542285
0.714681
0.533909
0.418889
0.353345
0.284844
0.206558
0.192569
0.161743
0.151871
0.131001
0.0952921
0.0684403
0.0627362
0.0862102
0.0325244
0.0285333
0.0888238
0.344831
0.595398
0.517413
0.403106
0.339997
0.273384
0.204683
0.211835
0.181637
0.18582
0.163333
0.126003
0.0863597
0.0870913
0.121383
0.0398883
0.0421417
0.111605
0.324717
0.540906
0.52912
0.427209
0.392191
0.32901
0.22144
0.210871
0.167118
0.178881
0.173128
0.150647
0.0854061
0.094335
0.152269
0.0329154
0.0590422
0.119476
0.346212
0.143392
0.0173244
-0.00652432
-0.00544091
-0.00287278
-0.00181726
3.23116e-05
-0.000194867
0.000101617
5.54672e-05
-0.00141956
0.0010588
-0.00122129
0.00151667
0.000274344
0.0030356
-0.0334485
0.881903
0.637704
0.305971
0.146922
0.074869
0.0437211
0.030058
0.0273985
0.0212739
0.0176673
0.0136584
0.00679673
0.0121731
0.00390027
0.0088814
-1.72068e-06
0.00615292
-0.0351355
0.845674
0.775573
0.47824
0.302882
0.197933
0.132682
0.0949678
0.0794564
0.0616032
0.050322
0.0392017
0.0258182
0.0321208
0.0177187
0.0216923
0.00659085
0.00276966
-0.024518
0.531224
0.712819
0.530101
0.39371
0.303527
0.232229
0.180995
0.15265
0.119929
0.0977827
0.0756634
0.054446
0.0584639
0.0398891
0.0391603
0.0175029
0.00514599
-0.0147904
0.415915
0.603025
0.507756
0.414472
0.359248
0.302473
0.252884
0.22029
0.17734
0.14874
0.116155
0.0888989
0.0874428
0.0666879
0.0614689
0.0312716
0.0116558
-0.00350361
0.324488
0.521338
0.482851
0.386036
0.336189
0.293772
0.268944
0.253789
0.214769
0.190043
0.149992
0.122772
0.117018
0.094765
0.0880134
0.045848
0.0181713
-0.00102488
0.172042
0.44451
0.468384
0.356784
0.311201
0.276296
0.269584
0.266368
0.227477
0.207109
0.157269
0.129707
0.117081
0.10651
0.109125
0.0556331
0.0344627
-0.00427521
0.357548
0.142454
0.0172991
-0.00619481
-0.00543696
-0.00377794
-0.00163339
5.26405e-05
-0.000656126
-0.000537
0.000580028
-0.00151827
0.000630465
-0.00173731
0.00155442
-0.00203548
0.000567889
-0.0368709
0.903757
0.640464
0.301832
0.145845
0.0740202
0.0409945
0.0313796
0.0283415
0.0203532
0.0167413
0.0160026
0.0077252
0.0113723
0.00525871
0.00976678
0.00555633
0.00305512
-0.00671834
0.802165
0.776932
0.471634
0.299072
0.194689
0.12817
0.0979028
0.0811083
0.0598255
0.0496459
0.0431892
0.0275801
0.0302222
0.0205947
0.0221664
0.017132
0.00355087
0.014881
0.588703
0.763843
0.553966
0.406377
0.30439
0.22718
0.185749
0.153997
0.115059
0.0965704
0.0808872
0.0564832
0.0559388
0.0427497
0.0400006
0.0325919
0.0137744
0.0254134
0.456846
0.630119
0.493956
0.384146
0.324685
0.281359
0.259456
0.224988
0.172489
0.149484
0.125512
0.0912885
0.0870414
0.0685474
0.061638
0.0493708
0.0326825
0.0287439
0.34091
0.576391
0.482855
0.38108
0.34184
0.310439
0.29849
0.256545
0.192584
0.177869
0.158984
0.119683
0.1161
0.0951341
0.0848769
0.0657725
0.0577707
0.0312782
0.232773
0.542194
0.476031
0.332026
0.269814
0.234882
0.250399
0.235408
0.186108
0.186875
0.178332
0.132525
0.121283
0.0996673
0.0901108
0.0662054
0.08592
0.0434918
0.334686
0.14245
0.0161565
-0.00722909
-0.00537378
-0.00315724
-0.00115953
0.000175708
-0.000571756
-0.00129041
0.00142882
-0.00179585
0.000131266
-0.00274748
0.00379306
-0.00435573
0.00688061
-0.0476651
0.831669
0.624693
0.293006
0.137808
0.0724773
0.0422104
0.0313385
0.0267831
0.0179716
0.0126717
0.0166817
0.00511499
0.00662792
0.000671215
0.0125086
-0.00922777
0.0205818
-0.0480187
0.78565
0.773403
0.464189
0.285017
0.190347
0.128435
0.0954125
0.0759891
0.0524803
0.0408082
0.0418428
0.0218324
0.0197766
0.0131883
0.0245064
-0.00740275
0.0201831
-0.0253772
0.531244
0.716187
0.52006
0.379065
0.297991
0.226883
0.179335
0.144447
0.101072
0.0818252
0.0757555
0.0466205
0.0381473
0.0338133
0.0386864
0.00140403
0.0228248
-0.0143819
0.350408
0.576903
0.446796
0.350376
0.31707
0.269934
0.234235
0.19875
0.142606
0.122103
0.112223
0.0739858
0.058522
0.0595196
0.0555118
0.0150797
0.0317948
-0.00766816
0.36623
0.612172
0.505729
0.371567
0.32821
0.287744
0.272308
0.243425
0.176215
0.154615
0.144963
0.0964828
0.0733948
0.0825571
0.0716729
0.0242916
0.0516528
-0.0085126
0.161158
0.423767
0.396387
0.285998
0.258214
0.219667
0.224047
0.209339
0.147634
0.135073
0.146501
0.0984841
0.071213
0.092057
0.0828979
0.0225515
0.0720267
-0.019549
0.328488
0.142581
0.0195364
-0.00663954
-0.00600167
-0.00334494
-0.000493136
-3.24615e-05
-0.000440237
-0.00125203
0.000214928
-0.00192294
0.00128452
-0.00313117
0.00350044
-0.00523356
0.000875707
-0.0592934
0.820705
0.636885
0.315547
0.150076
0.0767967
0.0455684
0.034541
0.0265041
0.0181335
0.0128379
0.0128256
0.00540052
0.0103337
-0.00262588
0.0116441
-0.0160497
0.0149683
-0.0749405
0.687419
0.786938
0.495197
0.302506
0.198298
0.137336
0.101713
0.0756155
0.0525053
0.0413071
0.0363709
0.023815
0.0271983
0.00552947
0.0237377
-0.0246389
0.0217676
-0.0602913
0.483313
0.76572
0.570395
0.414576
0.322042
0.250887
0.192106
0.144098
0.10045
0.0813934
0.0692868
0.0514912
0.0519542
0.0219834
0.0393744
-0.0261497
0.027101
-0.048952
0.335925
0.642551
0.498602
0.387286
0.351219
0.315485
0.262056
0.203475
0.145039
0.120668
0.105623
0.0827942
0.082326
0.0465723
0.0583238
-0.0172548
0.0288074
-0.0373456
0.28799
0.557297
0.496685
0.416451
0.382294
0.3455
0.296266
0.233317
0.171819
0.145958
0.13628
0.110316
0.110106
0.0764428
0.0771719
0.000418879
0.0346228
-0.0404475
0.232791
0.465719
0.429197
0.353638
0.343447
0.319295
0.28197
0.211228
0.158899
0.138464
0.14835
0.12608
0.125021
0.0985045
0.0915608
0.0124357
0.046425
-0.0411826
0.345187
0.140633
0.017706
-0.00585301
-0.00539309
-0.00352145
-0.000160565
-0.000495712
-0.000469031
-0.000982764
0.00129797
-0.00112776
0.000871578
-0.00232495
0.000473264
-0.0034667
0.000527967
-0.0311839
0.820825
0.612173
0.291022
0.14067
0.0736197
0.0431302
0.0346837
0.0250939
0.0183916
0.0143658
0.0163013
0.00752912
0.00887265
0.00179956
0.00379219
0.00359508
0.00261759
-0.0224033
0.809128
0.780812
0.472238
0.297601
0.197747
0.135179
0.102883
0.0744951
0.0550145
0.0458658
0.0428272
0.0266875
0.0233637
0.0123416
0.0108005
0.0123493
0.0102385
-0.0121699
0.582188
0.722837
0.503211
0.372764
0.29502
0.234321
0.189169
0.14142
0.105462
0.0906164
0.0802679
0.0553686
0.0461634
0.0272743
0.0258876
0.0209622
0.027019
-0.00542757
0.47897
0.639613
0.474546
0.377185
0.33245
0.296179
0.260056
0.204237
0.159246
0.141698
0.127893
0.0912353
0.079112
0.0442126
0.049274
0.0301012
0.0467757
0.00103682
0.359305
0.554484
0.418012
0.335428
0.320393
0.313125
0.297898
0.23476
0.18562
0.170387
0.166064
0.12452
0.118264
0.0606249
0.0766158
0.0386647
0.0585793
0.0110976
0.27642
0.492192
0.414257
0.319742
0.280591
0.267111
0.284421
0.232312
0.195365
0.175176
0.184526
0.136951
0.148381
0.0773545
0.102087
0.0637932
0.0654407
0.00654703
0.354899
0.130801
0.0141759
-0.00666677
-0.00622882
-0.00353848
-0.00156446
-0.000284156
0.000997478
-0.00036586
-0.000405904
-0.00102109
-0.000204026
-0.00153435
-0.000767977
-0.000612658
-0.000591732
-0.0295508
0.826391
0.611693
0.288011
0.137357
0.0700799
0.0427485
0.0317843
0.027223
0.0243736
0.0152225
0.0115503
0.00803151
0.0080768
0.00393156
0.00285376
0.00607789
-0.00236805
-0.0231661
0.6879
0.743416
0.463097
0.286913
0.18637
0.131509
0.0993139
0.0805554
0.0667064
0.0448523
0.0346494
0.0265125
0.0241048
0.0166377
0.0126169
0.0165377
0.00079692
-0.0222227
0.586793
0.714183
0.50393
0.364744
0.282422
0.228554
0.185518
0.153402
0.125667
0.0870133
0.0680437
0.053248
0.0471957
0.0349139
0.0298083
0.029974
0.0126583
-0.0200845
0.419913
0.651462
0.493119
0.357391
0.302562
0.285239
0.262126
0.230024
0.192257
0.13516
0.10717
0.0845326
0.0751923
0.0550968
0.0527708
0.0458922
0.0279069
-0.00971443
0.273019
0.564254
0.434112
0.282086
0.251174
0.280671
0.292184
0.271503
0.235513
0.168179
0.139353
0.112883
0.103328
0.0733465
0.0763222
0.0619847
0.038567
0.00702713
0.28417
0.501581
0.44956
0.305922
0.267364
0.284097
0.292232
0.261507
0.230917
0.166039
0.146348
0.128091
0.123699
0.083323
0.100111
0.0829078
0.0511446
0.0403251
0.340278
0.133809
0.0150287
-0.0058714
-0.00514267
-0.00213993
-0.00043891
-0.00127121
-0.00066819
-0.000475636
-0.000553652
-0.000544269
0.00022636
-0.00176294
-0.000820154
0.000138667
0.00250532
-0.044446
0.764219
0.588522
0.298886
0.152089
0.0770601
0.0451658
0.0311139
0.0202264
0.0179179
0.0147721
0.0116407
0.00853145
0.00814609
-0.000278886
0.00168165
0.000378997
0.0056823
-0.0545413
0.694705
0.779776
0.504844
0.319923
0.201089
0.133829
0.0924976
0.0631429
0.0535463
0.0432808
0.0353561
0.0273138
0.0244508
0.0080204
0.0107216
0.0069713
0.00297735
-0.0535514
0.469846
0.674883
0.518718
0.395503
0.303433
0.237037
0.176344
0.125007
0.104756
0.0837617
0.0690674
0.0542976
0.0482261
0.0224578
0.0263728
0.0185922
0.00569499
-0.05206
0.465544
0.672877
0.500962
0.372881
0.325433
0.301288
0.2464
0.181586
0.155699
0.12546
0.105588
0.0841505
0.0759774
0.0399918
0.0466386
0.0361717
0.0125936
-0.0469638
0.36699
0.578407
0.475572
0.363038
0.336641
0.333976
0.282878
0.209762
0.187873
0.156133
0.136986
0.112011
0.104903
0.0595002
0.0683992
0.0580381
0.0222662
-0.038907
0.289335
0.462818
0.404719
0.313731
0.301957
0.304621
0.261695
0.190969
0.182763
0.15357
0.135465
0.107965
0.108402
0.0624099
0.0809453
0.0820315
0.0279382
-0.0292162
0.319092
0.14288
0.0206586
-0.00468991
-0.00542166
-0.00145876
-0.0016518
-0.000965384
0.000740016
-0.00095274
-0.000196
-0.000481958
-0.000207356
-0.00336826
-0.000411591
-0.000490131
-0.000695751
-0.0460542
0.832238
0.617478
0.293832
0.141325
0.0723537
0.0472045
0.0292306
0.0234833
0.0229943
0.0128357
0.0119459
0.00895832
0.00716088
-0.00219872
0.00705327
0.0051645
-0.000308912
-0.0392527
0.718755
0.746855
0.484318
0.306224
0.200505
0.141079
0.0922394
0.0719174
0.0627706
0.0394898
0.0346145
0.0264944
0.0205081
0.00487184
0.0198064
0.0155503
-0.00487944
-0.0241545
0.507474
0.715795
0.551095
0.39999
0.309429
0.244546
0.172595
0.138273
0.118234
0.0782882
0.0671389
0.0516985
0.0388816
0.0167222
0.0388657
0.027745
0.000577101
-0.0169395
0.263913
0.621533
0.541691
0.410124
0.357733
0.314588
0.235866
0.197846
0.174047
0.119756
0.103645
0.0811003
0.0594899
0.0282403
0.0635157
0.040102
0.00933135
-0.00405653
0.270791
0.490045
0.470541
0.363446
0.348424
0.33274
0.259855
0.230775
0.215112
0.154814
0.137963
0.112282
0.0831467
0.0370809
0.0876321
0.0537279
0.0117674
0.0160469
0.172011
0.437651
0.481603
0.345085
0.318959
0.30714
0.240396
0.227641
0.233316
0.171124
0.149332
0.123702
0.0884425
0.0302035
0.10156
0.0651005
-0.00166645
0.021094
0.310634
0.141127
0.017685
-0.00540761
-0.00504541
-0.00247754
-0.00116044
-0.00201978
0.000546609
0.000539706
-0.00292322
0.00300837
-0.000300964
-0.00401614
0.000506552
0.001471
0.00304892
-0.142135
0.908928
0.644405
0.296716
0.143414
0.0728867
0.0423302
0.0285224
0.0193723
0.0229081
0.0168791
0.00416259
0.0171695
0.00241225
-0.0128443
0.00282961
-0.0113387
-0.0170628
-0.197056
0.737472
0.748401
0.459818
0.295901
0.191321
0.125909
0.086031
0.0621675
0.0639524
0.0464365
0.0251903
0.0406506
0.0121671
-0.0162324
0.0112766
-0.0180751
-0.0754296
-0.203267
0.621908
0.763313
0.522622
0.39082
0.299237
0.224986
0.162207
0.121262
0.121521
0.0863992
0.0587826
0.0738512
0.0289041
-0.0151116
0.0260494
-0.0202673
-0.124674
-0.21483
0.436043
0.60694
0.455119
0.378789
0.324076
0.271701
0.207404
0.165211
0.179488
0.12732
0.0987899
0.118319
0.0505797
-0.00849723
0.0482635
-0.0174091
-0.165055
-0.215051
0.366291
0.546512
0.441868
0.371101
0.318806
0.281661
0.215099
0.175808
0.217973
0.150085
0.121267
0.163037
0.067112
-0.00633619
0.0735872
-0.007988
-0.201423
-0.196119
0.41719
0.519062
0.39359
0.324783
0.289975
0.288277
0.219908
0.170236
0.241342
0.157468
0.120348
0.203166
0.0813294
-0.00285549
0.0970036
-0.00345737
-0.225464
-0.164533
0.387356
0.153211
0.0210354
-0.00458288
-0.00442325
-0.00157328
-0.00248109
-0.000886249
-0.00105139
-0.000252373
0.000577714
-0.000524615
-0.00119354
-0.00242025
0.000688877
-0.00303884
-0.00469462
-0.0267582
0.811793
0.62152
0.295939
0.145092
0.0756424
0.0448017
0.0252701
0.0233561
0.0189555
0.0179276
0.0164986
0.0101362
0.00636617
0.0044347
0.0128953
0.00134432
-0.00227767
0.0055449
0.865019
0.83122
0.492761
0.307113
0.199701
0.130569
0.0820292
0.0702715
0.0573485
0.0517955
0.0444677
0.0299227
0.0210867
0.018631
0.0300633
0.00803787
0.0047173
0.0255022
0.487529
0.679953
0.503649
0.391633
0.308782
0.22797
0.156203
0.134115
0.110688
0.0997914
0.0840886
0.0585362
0.0418497
0.0403223
0.0519819
0.019134
0.0180883
0.0515375
0.540517
0.716584
0.534183
0.418855
0.35445
0.282746
0.20834
0.189783
0.162337
0.15207
0.130312
0.0950337
0.0654515
0.0681391
0.0782962
0.0287176
0.0335175
0.0791297
0.342303
0.598499
0.517776
0.40284
0.340916
0.271061
0.207222
0.208194
0.182069
0.185865
0.162918
0.124901
0.0831334
0.0947839
0.11047
0.0350556
0.0499197
0.101262
0.321536
0.543564
0.529813
0.428834
0.393439
0.325713
0.224113
0.206977
0.166628
0.178387
0.174661
0.146495
0.0818397
0.106728
0.136718
0.0269441
0.071509
0.110498
0.284468
0.443378
0.42229
0.264392
0.214264
0.208097
0.26556
0.29522
0.241847
0.229646
0.185455
0.178549
0.140429
0.104802
0.11567
0.0470288
-0.0217596
-0.0521323
0.092883
0.38663
0.420877
0.262933
0.25391
0.212617
0.211849
0.233461
0.224924
0.172654
0.12372
0.138366
0.0634816
0.121664
0.0937352
0.0637813
0.0460584
-0.198879
0.0206599
0.270958
0.430043
0.280671
0.203066
0.18714
0.206663
0.206774
0.181345
0.141081
0.150601
0.200082
0.0846048
0.138474
0.150965
-0.020965
-0.0265165
-0.194795
-0.122716
0.111875
0.266466
0.229926
0.169735
0.109262
0.142734
0.224837
0.140984
0.051758
0.0907232
0.099089
0.0103372
0.019002
0.0288155
0.0502769
0.0119753
-0.177571
0.148553
0.193408
0.258151
0.268768
0.13383
0.0842678
0.0970904
0.178455
0.178372
0.100556
0.066424
0.0379076
0.00325824
0.117307
0.174611
0.028972
-0.0581119
-0.18236
-0.0229128
0.00700988
0.122275
0.160113
0.0538965
0.040744
0.139727
0.264202
0.201309
0.0554256
-0.0212618
-0.0397281
-0.00936963
0.0121437
0.044337
0.0693742
-0.0294587
-0.158027
0.00190195
0.0141593
0.110156
0.188737
0.162808
0.183499
0.10506
0.0906865
0.112865
0.0614402
0.012718
-0.0437695
-0.0706828
-0.112839
-0.0849998
-0.0245569
-0.0951754
-0.166127
0.211313
0.0413064
-0.0474467
0.0250692
0.0571744
0.0789678
0.0838596
0.0863121
0.0121006
-0.00433946
0.0746253
0.0975927
0.040423
-0.0565171
-0.00122867
-0.0101134
-0.12346
-0.111273
0.0630031
0.0121795
-0.0253729
0.088243
0.132234
0.132965
0.0933384
0.0884301
0.107171
0.11589
0.0822891
-0.00966836
-0.0787203
-0.0930527
-0.0720167
-0.147133
-0.155621
-0.0502786
0.0672951
0.0836294
0.0733722
0.166689
0.189124
0.0925062
-0.0140636
-0.0650819
-0.0338201
0.00719506
0.0168734
-0.00386439
-0.0629119
-0.12312
-0.184174
-0.167975
-0.158307
-0.194634
0.183646
0.37478
0.360157
0.291337
0.298551
0.29029
0.285959
0.230684
0.152791
0.160086
0.190764
0.15845
0.131154
0.119088
0.103477
0.0421599
0.0662675
0.0719259
0.121868
0.357758
0.303538
0.204544
0.170186
0.131976
0.167517
0.22332
0.16691
0.102317
0.13335
0.146544
0.0558624
0.078487
0.084007
-0.0263786
0.0473135
0.100949
0.0257905
0.17311
0.21766
0.269016
0.286592
0.166389
0.0868119
0.201747
0.227146
0.100148
0.120137
0.187318
0.0703664
0.0572821
0.121096
-0.0154014
-0.0334953
0.0667944
0.173439
0.248504
0.168633
0.181941
0.246057
0.134844
0.0136561
0.164132
0.306775
0.140303
0.0290843
0.108911
0.0964136
0.0235163
0.082877
0.12036
0.0539358
-0.0223316
0.233133
0.133046
-0.0149874
0.0552306
0.27136
0.187675
-0.029034
0.0389244
0.19603
0.150371
0.0288978
0.00431479
0.0140113
0.0224297
0.0253191
0.0648122
0.0943375
0.103833
0.10817
0.161547
0.0814059
0.147088
0.271845
0.183093
-0.00789402
0.00602101
0.107439
0.0806538
0.0447213
0.114835
0.137187
0.133607
0.145604
0.00970667
-0.0556466
0.0175808
-0.0184844
0.0977919
0.0466492
0.0576814
0.133109
0.165629
0.102153
0.087599
0.032554
-0.0758935
-0.0654742
0.0394603
0.0663264
-0.00122545
-0.0173818
0.0109782
-0.035763
-0.078639
-0.0465431
0.0160606
0.105576
0.0727579
0.0409797
0.0911244
0.107212
0.090109
0.054428
0.0680477
0.0556327
0.0697452
0.107579
0.11999
0.118488
-0.00129618
-0.101995
-0.110463
0.0432713
0.0117421
-0.0547235
-0.0752151
-0.000979705
0.0965658
0.099786
0.100296
0.0236796
-0.0866656
-0.147183
-0.10467
-0.0862369
-0.0832388
0.0135825
0.0355138
-0.00252241
-0.0435112
0.0300035
0.0428749
0.0565338
0.117749
0.12404
0.111448
0.038138
-0.0611334
-0.0776945
-0.0877676
-0.0913257
-0.0834352
-0.0560153
0.0402863
0.0897896
0.0838686
0.0153326
-0.105683
0.121943
0.388306
0.406516
0.281067
0.270863
0.235825
0.248907
0.257842
0.180523
0.125926
0.135882
0.0891324
0.0534955
0.0682403
0.0815008
0.0162104
0.0900907
-0.0154164
-0.0144512
0.173593
0.302737
0.225237
0.159171
0.111079
0.123894
0.162479
0.141823
0.0661253
0.125166
0.154622
0.10886
0.0720657
0.0760241
-0.0535338
0.000804534
0.0524935
0.0645873
0.178447
0.256451
0.231797
0.144747
0.0752687
0.132081
0.247887
0.235996
0.036097
0.0040237
0.121812
0.0349564
-0.0266098
0.102056
-0.0317256
-0.0429086
0.0759643
0.0179433
0.102347
0.0629264
0.176582
0.201737
0.0509372
-0.0857516
0.149101
0.386113
0.172163
0.0413568
0.18851
0.165816
-0.0473329
0.00605292
-0.0643637
-0.0766976
0.145193
0.0185907
0.0495628
-0.0779195
0.0832459
0.284885
0.200972
-0.00512206
0.0582731
0.285813
0.114303
-0.0824174
-0.0476558
0.0742793
0.140111
0.0154975
-0.115241
-0.0972628
-0.0624467
0.0344803
-0.0156297
-0.000510651
0.164849
0.231076
0.126894
0.13435
0.270141
0.270871
0.12681