/*--------------------------------*- C++ -*----------------------------------*\
| =========                 |                                                 |
| \\      /  F ield         | OpenFOAM: The Open Source CFD Toolbox           |
|  \\    /   O peration     | Version:  3.0.1                                 |
|   \\  /    A nd           | Web:      www.OpenFOAM.org                      |
|    \\/     M anipulation  |                                                 |
\*---------------------------------------------------------------------------*/
FoamFile
{
    version     2.0;
    format      ascii;
    class       volScalarField;
    location    "0.1";
    object      Uz;
}
// * * * * * * * * * * * * * * * * * * * * * * * * * * * * * * * * * * * * * //

dimensions      [0 1 -1 0 0 0 0];

internalField   nonuniform List<scalar> 
244500
(
0.0442976
0.0070323
-0.000405572
-0.000695329
-0.00260254
-0.00228513
-0.00356458
-0.00235569
-0.000112057
-0.00126062
-0.00216872
-0.00439386
-0.00423768
-0.00384855
-0.00569767
-0.00190047
-0.00229716
-0.0184557
0.0240482
0.0140124
0.00386618
-0.000201079
-0.00630514
-0.0049667
-0.00735062
-0.00538436
-7.23488e-05
-0.00135309
-0.00347304
-0.00810905
-0.00863053
-0.00931578
-0.0128076
-0.00164539
-0.00107507
-0.010602
-0.00465375
0.011362
0.00848432
0.00537441
-0.00584727
-0.0049074
-0.00707558
-0.00746112
-0.000374636
0.00027334
-0.00144572
-0.007702
-0.0081694
-0.0102381
-0.021903
-0.00603299
0.000982156
-0.0109629
-0.0106157
-0.0433493
-0.0256448
-0.00523821
-0.00935756
-0.0045557
-0.00195407
-0.00524253
-0.000169504
0.00111214
0.00139929
-0.00695311
-0.00517767
-0.00240265
-0.0281265
-0.0153183
0.00476005
-0.0126614
0.0261224
0.0199104
-0.0041549
-0.000106506
-0.003346
0.00564551
0.0145099
0.00809013
0.00524768
0.000174045
0.00269986
-0.00911005
-0.00773795
0.0128785
-0.0236125
-0.0257608
0.00931679
0.000895332
0.0120001
0.00114895
-0.0398091
-0.0248102
-0.00954807
0.0026607
0.0142256
0.00976362
0.00372809
-0.0109864
-0.00422775
-0.0148586
-0.0228254
0.0259253
-0.00434678
-0.0309285
0.010726
0.0251987
0.021487
0.0139224
-0.0451492
-0.0399441
-0.010448
0.00122052
0.00684293
0.00444363
-0.000719669
-0.0315685
-0.0245658
-0.0206936
-0.0432245
0.029648
0.0290631
-0.0232853
0.0103997
0.0320844
0.0209768
-0.000917354
0.000217674
0.00574665
0.00503512
0.000954149
-0.00124871
-0.00235056
-0.0012736
0.00113175
0.0020202
0.00342029
0.00691921
0.00913873
0.0153567
0.0241557
0.0514097
0.0490693
-0.0252491
-0.0256319
-0.0113985
0.00944506
0.0160184
0.00808496
-0.000166017
-0.00601039
-0.00447155
0.00125346
0.00287188
0.00460939
0.0107054
0.0115173
0.0208035
0.0297009
0.0714273
0.0743163
0.027864
0.00630603
-0.00542634
0.0120295
0.02682
0.0211
0.00879242
-0.00529356
-0.00932498
-0.00067491
0.00305706
0.00405411
0.0122364
0.0114674
0.0165913
0.0251329
0.0611983
0.0777912
-0.0152626
-0.0459348
-0.0422957
-0.00980162
0.022613
0.0288805
0.0216584
0.00319715
-0.0126099
-0.0048517
0.00261268
0.00302614
0.0131852
0.0155418
0.0109801
0.0182545
0.0473091
0.0716908
-0.0227794
-0.0294959
-0.0336367
-0.0122586
0.0252128
0.0386547
0.03821
0.0225432
-0.00776629
-0.00878646
0.00138268
0.0019738
0.0115149
0.0232675
0.0117554
0.0103139
0.0324301
0.066038
-0.0195096
-0.0335662
-0.0608392
-0.0571733
-0.0180746
0.00348293
0.018221
0.0244776
-0.00745613
-0.0176109
-0.00457754
0.000991839
0.00667426
0.0273742
0.0210323
0.00853135
0.0132631
0.0487431
0.0181975
0.00396798
-0.0294289
-0.0512925
-0.0238927
-0.0138472
-0.00871529
0.0131072
-0.0114228
-0.0236951
-0.00645897
0.0106449
0.0120364
0.0257325
0.0318859
0.0188023
-0.000306457
0.00854602
-0.0350111
-0.0166233
-0.00998352
-0.00785748
-0.00547977
-0.00255904
-0.00060318
-0.000251219
0.00135515
0.00235073
0.00227996
0.00226844
0.00250534
0.00471485
0.00736074
0.0127941
0.026516
0.0296673
-0.0296009
-0.0183269
-0.015306
-0.0129482
-0.00971606
-0.00567903
-0.00251682
-0.00212448
0.00169395
0.00499342
0.00460358
0.00343233
0.00286012
0.00499917
0.00763189
0.0134829
0.0328485
0.0482979
-0.103985
-0.050002
-0.0225591
-0.0175584
-0.0156439
-0.0116561
-0.0066647
-0.00616699
-0.00186435
0.00522109
0.0070498
0.00510597
0.00313735
0.00519196
0.0047939
0.009372
0.023321
0.0429871
-0.00114725
-0.0167679
-0.0344188
-0.0422189
-0.0381942
-0.0291413
-0.0176104
-0.0126785
-0.00824449
0.00185159
0.00855248
0.00785959
0.00347324
0.00788055
0.00343878
0.00564121
0.0147291
0.0300477
0.0321898
0.0224857
0.00367519
-0.0155607
-0.0281128
-0.032363
-0.0253653
-0.0170139
-0.0120756
-0.00254924
0.00795894
0.0111064
0.00283142
0.0113316
0.00628874
0.00324491
0.0101574
0.0196396
-0.0359636
-0.0181085
0.00865475
0.00297304
-0.013418
-0.0261681
-0.0260386
-0.0147081
-0.00605371
-7.68611e-05
0.00749177
0.0132263
-0.000262413
0.0112842
0.0119485
0.00378153
0.00775848
0.017849
-0.0212836
-0.0547618
-0.049671
-0.034323
-0.0264698
-0.0233796
-0.0175642
0.000769648
0.0151819
0.0133305
0.00555803
0.00411323
-0.0149645
0.00020436
0.0127209
0.00595978
0.00289726
0.0216473
-0.0100555
-0.012215
-0.00876542
-0.00594175
-0.00404495
-0.00329186
-0.00228604
-0.00146687
0.000235547
0.0006211
0.00241439
0.00301995
0.00559103
0.00605232
0.00706223
0.00642738
-0.000156724
-0.00723568
0.00385905
-0.025992
-0.0204208
-0.010455
-0.00463572
-0.0046977
-0.00493995
-0.00521265
-0.00177906
-0.000751829
0.0035336
0.00526567
0.0114421
0.0130085
0.0154542
0.0168134
0.00437638
0.00889398
-0.00735044
-0.0383057
-0.0335139
-0.0175354
-0.00563511
-0.00481754
-0.00713827
-0.0106369
-0.00711151
-0.00530541
0.000539857
0.00268296
0.0116652
0.0158939
0.0192929
0.0260084
0.00762429
0.0147783
0.00684372
-0.0255301
-0.0227139
-0.0113452
-0.00178708
-0.00277909
-0.00846379
-0.0169177
-0.0154141
-0.0124964
-0.00430422
-0.00305049
0.00740964
0.0148181
0.0181155
0.0353717
0.0130487
0.0128777
-0.0784904
-0.0278602
0.00438027
0.000402867
0.000237983
-0.00199803
-0.0104771
-0.0237567
-0.0250757
-0.0214392
-0.00758332
-0.00774365
0.00175313
0.0127109
0.0101919
0.0403958
0.0242256
0.011116
-0.0241687
-0.02796
-0.0170708
-0.0127506
0.00262322
0.00578017
-0.0106002
-0.031088
-0.0320338
-0.0281268
-0.00406601
-0.0036862
-9.23405e-05
0.0160337
0.00166376
0.0357496
0.0341283
0.0233022
-0.0334778
-0.0407503
-0.00262326
0.0214638
0.0289108
0.0139245
-0.0240536
-0.0493402
-0.0316981
-0.0190019
0.0210109
0.025412
0.0147084
0.0303126
0.00263182
0.0304512
0.0333366
0.035588
-0.0244619
-0.0125164
-0.00427256
-0.00170492
-0.00173543
-0.00231997
-0.00250368
-0.000190298
-0.00233866
-0.00157152
0.000581757
0.00184733
0.00601202
0.00738473
0.0111564
0.00954658
0.0146008
-0.0011881
-0.0529351
-0.017053
-0.0027696
0.00263518
0.0027694
-4.9994e-05
-0.00329743
0.000554409
-0.00526024
-0.00459922
-0.0010475
0.000959316
0.0101383
0.0130649
0.0216129
0.0180297
0.0261825
0.0195711
0.000426631
0.00706402
0.00940094
0.0109564
0.0105061
0.00633258
-0.00279337
0.00209542
-0.00574397
-0.00789
-0.00328965
-0.00449772
0.00668254
0.0114667
0.0223229
0.0237614
0.0247303
0.0364788
-0.0425547
-0.0160732
-0.00369859
0.0111027
0.0183755
0.0176868
0.000497562
0.00367677
-0.00439966
-0.0115535
-0.00390856
-0.00967098
-0.00124662
0.00585229
0.0145817
0.0249582
0.0208914
0.0340213
-0.0360319
-0.0403626
-0.017601
0.0108651
0.0215759
0.0271284
0.00339886
0.00160843
-0.00401163
-0.0181756
-0.00536326
-0.0113113
-0.0107114
-0.000617203
0.00277492
0.0170709
0.0196989
0.0176596
-0.0321391
-0.0300312
0.0118041
0.0381461
0.0266044
0.0251038
-0.00544478
-0.0148816
-0.0120443
-0.0321182
-0.0145423
-0.0106259
-0.0207906
-0.00843792
-0.00640468
-4.30833e-05
0.0182634
0.000698513
-0.0655256
-0.0399425
0.00456572
0.0202798
-0.00711225
0.00309501
-0.0145928
-0.0321526
-0.0175434
-0.0392573
-0.0236281
-0.000763945
-0.0222559
-0.0176629
-0.0103861
-0.0183465
0.0122211
-0.0161408
-0.0575094
-0.0193224
-0.00558258
-0.00181821
-0.000430584
-0.00105997
-0.00193759
-0.00110881
-0.00194936
0.000305923
0.000440428
0.00147566
0.00192953
-0.000458096
0.00293839
-0.000361512
0.010688
0.00602742
-0.0523311
-0.0186499
-0.0030443
0.000465245
0.00141207
-0.000679273
-0.00355417
-0.00249655
-0.00444665
0.000315064
0.000684621
0.00362028
0.00510175
-0.00099127
0.00585773
-0.00553781
0.012511
0.0149622
-0.00104206
-0.0229055
-0.00532659
0.00372225
0.00491945
0.00206867
-0.00283731
-0.00228155
-0.00692995
-0.000935568
-0.000280352
0.00330573
0.00938613
-0.00084802
0.00996867
-0.00607639
0.00322578
0.0221793
0.00656318
0.0313867
0.0393707
0.0301769
0.0174004
0.00887745
0.00135522
0.00217478
-0.00758321
-0.0026107
-0.00118181
-0.000247615
0.0139548
-0.000426921
0.0134697
0.000623984
-0.00850578
0.0242196
0.0150941
-0.00268892
0.0218255
0.0268837
0.0159741
0.00988579
0.0048503
0.0106763
-0.00518392
-0.00568461
-0.00132371
-0.00716661
0.0170001
0.00158029
0.0123316
0.0128138
-0.0161913
0.0188636
-0.013369
0.00269937
0.0205924
-0.00197739
-0.0262163
-0.0237362
-0.0194741
-0.00242091
-0.0192902
-0.0256984
-0.00922449
-0.0198204
0.0139573
0.00750886
0.00671521
0.0231286
-0.014492
0.00973279
0.000104001
0.0154892
0.0278309
-0.00680223
-0.0299475
-0.0220421
-0.0313909
-0.0195509
-0.0356525
-0.0501136
-0.0167588
-0.0291364
0.00509263
0.0174823
0.00606752
0.0290318
-0.00594989
0.0116472
-0.0369903
-0.00316563
0.0054544
0.00855112
0.00652467
0.00553496
0.00310461
0.000419286
0.000743364
0.00228225
0.00404056
0.00494545
0.00288984
0.00149664
-0.00213909
-0.00441758
-0.00978306
-0.00238663
0.0545764
0.00647465
0.00931182
0.0185826
0.0150161
0.0124426
0.00728223
0.000524016
-0.000150391
0.00339874
0.00846668
0.0120771
0.00863427
0.00597412
-0.00103795
-0.00621176
-0.0149283
-0.0152516
-0.008743
-0.0119789
0.00439567
0.0212886
0.0180548
0.014597
0.0099038
0.00035537
-0.00381451
-0.00136744
0.00577112
0.0145349
0.0142627
0.0115804
0.00610015
-0.00403451
-0.0115685
-0.0222047
-0.00312676
0.00447822
0.010922
0.019373
0.0136289
0.0104709
0.00898221
-0.000226452
-0.00721759
-0.00824525
-0.00267459
0.009078
0.0167725
0.0142291
0.0157356
0.00278725
-0.00604834
-0.0225495
-0.0293112
0.00988768
0.0351945
0.0542607
0.0471497
0.0335029
0.0217723
0.0057667
-0.005349
-0.0103529
-0.00890864
-0.0031158
0.0141318
0.0108826
0.0196199
0.0141694
-0.000540795
-0.0163855
0.0608256
0.0847228
0.0661526
0.0587397
0.0424595
0.0236499
0.0090783
-0.00378152
-0.00755133
-0.0079808
-0.003984
-0.0149447
0.00750548
0.00439277
0.0113113
0.0245049
0.00558122
-0.00803618
0.0211479
0.0378858
0.0461607
0.0491507
0.0156346
-0.0161501
-0.0246878
-0.0163601
-0.00234885
-7.64935e-05
0.0111553
-0.02461
-0.00443424
-0.00170734
-0.00435102
0.027081
0.00983446
-2.20758e-05
-0.00687401
-0.00771793
0.00195806
0.00446896
0.000797114
-0.00148608
-0.00220589
-0.000558754
0.00139019
-0.000401175
-0.000367835
-0.00194144
-0.00718707
-0.00790498
-0.0150344
-0.0234105
-0.0482959
-0.0446788
0.0337965
-0.0147138
-0.00243584
0.00679627
0.00172652
-0.0041725
-0.00722015
-0.00358144
0.00122754
-0.000886284
0.00178835
-0.000579231
-0.0102302
-0.00796628
-0.0189275
-0.0274716
-0.0642424
-0.0786813
0.0362993
0.0069915
0.00105085
0.00691734
0.00241082
-0.00543769
-0.0124201
-0.00906232
-0.000497659
-0.00448647
0.00210605
0.00403011
-0.0100715
-0.00526634
-0.0123123
-0.022287
-0.0501699
-0.0787019
0.00402295
-0.00165777
-0.000952229
0.0084331
0.00505214
-0.00362954
-0.0151818
-0.0151509
-9.11226e-05
-0.00911971
-0.00314466
0.0076549
-0.00941923
-0.00625508
-0.00208898
-0.0159079
-0.0358934
-0.0620924
0.00916361
0.0157909
0.0174151
0.0272854
0.02113
0.010835
-0.00550067
-0.0155519
0.00715871
-0.00708626
-0.0120188
0.00564633
-0.0101784
-0.0145227
0.0047588
-0.006618
-0.0309307
-0.046541
0.0477747
0.0676511
0.0631354
0.055231
0.0313818
0.018149
0.00733861
-0.0125074
0.0181981
0.00450124
-0.017826
-0.00324046
-0.0148704
-0.0300169
0.00111045
0.00511812
-0.0308123
-0.0483817
0.0295843
-0.00803319
-0.00640945
0.0263759
0.0236092
0.0151851
0.0169229
-0.00897389
0.0278588
0.0209759
-0.0111106
-0.00745491
-0.019691
-0.043552
-0.00784966
0.0138099
-0.0308612
-0.059055
0.0160714
0.0200306
0.0142567
0.0089834
0.00720376
0.00301414
0.00261718
0.00213536
0.0014912
0.00122086
-0.00246136
-1.55447e-05
-0.00355262
-0.00363302
-0.0040984
-0.00637893
-0.015779
0.0104247
0.0244726
0.0273526
0.0208591
0.0127909
0.0119349
0.00485652
0.0031
0.00280554
0.00211493
0.00202509
-0.00543689
0.000524018
-0.00745135
-0.00655361
-0.00575814
-0.0111705
-0.0258879
-0.00441943
-0.0136817
0.0238714
0.01607
0.00613933
0.0108826
0.00702564
0.00409737
0.00314953
0.00253503
0.00396681
-0.00806236
0.00144077
-0.00690362
-0.0117532
-0.00118948
-0.0133699
-0.0234913
-0.0222994
-0.0240904
-0.0435271
-0.0418638
-0.0299256
-0.00432604
0.00539533
0.00602106
0.00349759
0.00213023
0.00727493
-0.0113738
-0.000743009
-0.00136987
-0.0205133
0.00295563
-0.0101762
-0.0191651
-0.0271174
0.0464595
0.0333855
0.0220411
0.00779306
0.0130421
0.0139449
0.0121778
0.00390694
-0.00223264
0.010448
-0.0142188
-0.0104974
0.00604569
-0.0278229
-0.0018874
-0.00403391
-0.0163194
-0.0120961
0.0361998
0.0211084
-0.0091579
-0.0316743
-0.0168006
0.00181777
0.0189977
0.011911
-0.00643366
0.0142923
-0.0111075
-0.0278559
0.00784346
-0.0286133
-0.0138262
-0.00481839
-0.0198169
0.00942242
0.0687066
0.0669001
0.0320368
0.0125594
0.0166627
0.00924039
0.0146524
0.00094995
-0.0334562
-0.000328424
-0.00623311
-0.0523429
-0.00560989
-0.0235159
-0.0229669
-0.012089
-0.033479
0.0317478
0.0182616
0.0192722
0.00734777
0.00549252
0.00540233
0.00549936
0.00613433
0.00440437
0.00394792
0.00470418
0.00227196
0.00338064
0.00337118
0.00530933
0.00747844
0.0138879
0.0214535
0.0345203
0.0655756
0.0397892
0.00945035
0.00583535
0.00857399
0.0105751
0.0122046
0.00826178
0.00708277
0.00939653
0.00393994
0.00584179
0.00436696
0.00623636
0.00913665
0.0173909
0.02904
0.0436897
0.00597604
0.00871879
-0.0112684
-0.00275025
0.00837397
0.0131233
0.0174948
0.0116295
0.00755539
0.012427
0.00558369
0.00756485
0.00627729
0.00521083
0.00708434
0.0149836
0.0277655
0.0375405
-0.0299746
-0.0081208
-0.0140133
0.00137386
0.0135176
0.0151391
0.022736
0.0167497
0.00676467
0.013393
0.00649144
0.00861259
0.0104271
0.00777832
0.00418155
0.0100119
0.0293299
0.0328894
0.0402333
0.0718269
0.0473842
0.0263773
0.0184985
0.0110705
0.0246842
0.02464
0.00729845
0.0130176
0.00594719
0.00826622
0.0143418
0.0176415
0.00804476
-0.00181052
0.0311878
0.0479643
0.0304394
0.064733
0.00471564
-0.0185086
0.00260909
0.0105872
0.0352603
0.0427938
0.0141789
0.0149789
0.00664938
0.0104208
0.0166246
0.0318937
0.0319255
-0.0153094
0.0128005
0.0822962
-0.0599474
-0.00534425
0.0170311
0.00568746
0.00978369
-0.00715947
0.00765926
0.0241699
-0.00972072
-0.00459536
-0.00374623
0.0134336
0.0152442
0.0343888
0.0746729
-0.0095463
-0.0396438
0.0942618
0.044506
0.00750239
-0.000671948
-0.000348283
-0.00161517
-0.00249381
-0.00192816
-0.000957191
0.000857054
0.000719245
0.000451418
-0.00156901
-0.000138425
0.00173592
0.00317367
0.00724077
0.0144
-0.00215474
0.0242567
0.0151636
0.00324135
-0.000250953
-0.00403983
-0.00591208
-0.00460604
-0.0027728
0.00121984
0.00193828
0.00117894
-0.00453756
-0.00161139
-0.000759018
0.00186546
0.0120922
0.0232995
0.0248853
-0.00464996
0.0132679
0.00819221
0.00383385
-0.00258625
-0.00633043
-0.00497151
-0.00349322
0.00049171
0.00309243
0.00490893
-0.00522525
-0.00170201
-0.00199473
-0.00666545
0.00746627
0.0218674
0.0289753
-0.0111219
-0.0408791
-0.0244656
-0.00892227
-0.00578824
-0.00553888
-0.00184706
0.000197301
0.000887564
0.00176156
0.00982632
-0.00466149
-0.00118054
0.00421142
-0.0129575
-0.00442585
0.0192061
0.0274481
0.0247347
0.0224525
0.000478122
-0.00573502
-0.00115752
0.00634362
0.0119419
0.0140471
0.0082986
-0.00264073
0.0124357
-0.00495323
-0.00566653
0.0156743
-0.00710725
-0.0153763
0.00979808
0.0480723
0.0111064
0.00166202
-0.0324567
-0.0310535
-0.0108505
0.00696518
0.00974828
0.0137136
0.0104809
-0.0174381
0.00532468
-0.00840135
-0.019398
0.0232737
0.0115524
-0.0120801
-0.0107382
0.0712054
0.0202881
0.00880239
-0.0303904
-0.0402684
-0.0210271
0.00623646
0.00267449
0.00457251
0.0100345
-0.0410258
-0.0155185
-0.0147812
-0.0351508
0.0240871
0.0396642
0.00793043
-0.0256058
0.0571024
0.0209952
-0.000803545
0.000784532
0.00560555
0.00537358
0.00142954
-0.000946851
-0.00160062
-0.000444051
0.00153772
0.0038498
0.00467593
0.00812024
0.0109068
0.0160374
0.0251819
0.0433853
0.0472366
-0.025344
-0.025708
-0.0102072
0.00904391
0.0164391
0.00906003
0.000117451
-0.00466661
-0.00293562
0.00162889
0.00651055
0.00679784
0.0124228
0.0160299
0.0224657
0.0353322
0.060918
0.0756332
0.0277402
0.00576395
-0.00359209
0.011694
0.0267019
0.0226226
0.00872223
-0.00403913
-0.00710795
-0.00137793
0.00732377
0.00761011
0.0121811
0.0171599
0.0187305
0.0326695
0.0535574
0.0732687
-0.0153871
-0.0472845
-0.0396946
-0.00950463
0.0214166
0.0310908
0.0213933
0.00361126
-0.00909158
-0.00708029
0.00575756
0.00969363
0.0109863
0.0196378
0.0147597
0.0257192
0.0428898
0.0624743
-0.0221266
-0.0323429
-0.0309813
-0.0102839
0.022469
0.0415228
0.0386954
0.0210187
-0.00230275
-0.0114799
0.000516582
0.0126482
0.00999212
0.0227467
0.016484
0.0193974
0.0301448
0.0534642
-0.0184199
-0.0366897
-0.0583633
-0.0525256
-0.0242561
0.00588824
0.0213029
0.0202435
-0.000296709
-0.0179669
-0.0119887
0.0137123
0.0102619
0.0221215
0.0235761
0.0192298
0.016439
0.0346594
0.0202942
0.000238091
-0.030738
-0.04248
-0.0299291
-0.0117071
-0.00337908
0.00461815
-0.004034
-0.0186441
-0.0203672
0.0217364
0.0231531
0.0188873
0.0311585
0.0265889
0.00766324
0.0061573
-0.0349115
-0.0165047
-0.00979211
-0.007999
-0.00555921
-0.00192971
-0.00104545
0.00020761
0.00167609
0.00228262
0.00264947
0.00139191
0.0025538
0.00235553
0.00496397
0.00826122
0.0143446
0.0168388
-0.0294981
-0.0182455
-0.0147919
-0.0132002
-0.0102542
-0.00424672
-0.00353123
-0.00134022
0.00258817
0.00475981
0.00600027
0.00216836
0.00377867
0.00211081
0.00517452
0.0102071
0.0163901
0.0335759
-0.103856
-0.0501215
-0.0217779
-0.0173485
-0.0171116
-0.00959436
-0.00785575
-0.00606475
-8.92329e-05
0.00430491
0.00918981
0.00401946
0.00428976
0.00271735
0.00203644
0.00863682
0.00854901
0.0273462
-0.000887765
-0.017172
-0.0337522
-0.0408463
-0.0407462
-0.0268427
-0.0181664
-0.01428
-0.00540048
0.000295242
0.0103805
0.00786584
0.00451403
0.00548187
0.000494088
0.00710352
0.00109834
0.0144324
0.0325846
0.0215903
0.00370658
-0.0121039
-0.0312936
-0.0306831
-0.0240505
-0.0209722
-0.00870731
-0.00359032
0.00763318
0.0127502
0.0048866
0.00738533
0.00329226
0.00891898
-0.00353547
-0.00276476
-0.0353641
-0.0176885
0.00643642
0.0068682
-0.0162701
-0.025893
-0.0211698
-0.0206666
-0.00404561
0.00154418
0.00320359
0.0151837
0.0062684
0.00354831
0.00636633
0.0180625
-0.000921844
-0.0256096
-0.021226
-0.0540747
-0.0547388
-0.0282025
-0.0248151
-0.0287276
-0.0102298
-0.00511385
0.0137401
0.0201162
-0.00323456
0.00237905
0.000770929
-0.0114743
-0.00258929
0.031575
0.0120715
-0.0468524
-0.00993368
-0.0124464
-0.0087792
-0.00646126
-0.0044776
-0.00261904
-0.00339994
-0.00140757
0.000229651
-0.000552866
0.00155763
0.00160031
0.00381531
0.00314267
0.00283109
-0.000582845
-0.00835172
-0.016303
0.00412753
-0.0265065
-0.0201477
-0.0113546
-0.00587763
-0.00294468
-0.007153
-0.00495826
-0.00109283
-0.00289684
0.00232576
0.00370265
0.00924575
0.0091403
0.0100535
0.0077224
-0.00652931
-0.00918065
-0.00687227
-0.0392103
-0.0328774
-0.0179467
-0.00827275
-0.00194755
-0.00961544
-0.0114758
-0.00474322
-0.00751576
-0.00166293
0.00176183
0.00986419
0.0123514
0.0141325
0.0172086
0.00138223
-0.00642232
0.00779469
-0.0271253
-0.0221291
-0.0102423
-0.00629312
0.000729885
-0.00979981
-0.0203411
-0.011693
-0.0127627
-0.00857645
-0.00370273
0.00645814
0.0120829
0.0136891
0.0232696
0.0158441
-0.00482278
-0.0769334
-0.0298881
0.00420536
0.00391899
-0.00603735
0.000623004
-0.00887197
-0.029983
-0.0227368
-0.0169403
-0.0138397
-0.00960091
0.00185272
0.0105255
0.0102618
0.0186999
0.0325663
0.00917397
-0.021629
-0.0309228
-0.019624
-0.0060542
-0.00301102
0.00531188
-0.00523874
-0.0379088
-0.0360883
-0.0166977
-0.0103862
-0.00869293
0.00151038
0.0114932
0.0125603
0.00397208
0.0366779
0.0401396
-0.0299144
-0.0426364
-0.00866588
0.0289945
0.0271137
0.00751762
-0.0155247
-0.0512431
-0.0479846
0.000519148
0.0173112
0.0147285
0.0195628
0.0195836
0.0265791
-0.00537374
0.025305
0.0651171
-0.0247281
-0.0128129
-0.0037883
-0.00216548
-0.00223266
-0.00212521
-0.00319747
-0.00136749
-0.00244019
-0.00310664
-0.0011979
0.000771452
0.00293205
0.00500306
0.00693657
0.0062408
0.00827652
-0.00255819
-0.0533363
-0.0179075
-0.00158679
0.00226889
0.0014555
0.000701906
-0.00434007
-0.00182365
-0.00477217
-0.0073665
-0.00401875
-0.000107911
0.0049669
0.00976514
0.0147228
0.0136001
0.0159009
0.00917323
6.24435e-05
0.00537698
0.010854
0.0116753
0.00834175
0.00733587
-0.00282396
-0.00185546
-0.00431581
-0.0102874
-0.00785812
-0.00435312
0.00112795
0.00810016
0.0152876
0.0192596
0.0175207
0.0185306
-0.0425328
-0.0188047
-0.0028251
0.0136506
0.0157416
0.0179149
0.00285664
-0.00203702
-0.00295936
-0.0116644
-0.0107781
-0.0087388
-0.00589639
0.0021403
0.0084246
0.0190478
0.0198402
0.0149019
-0.0352499
-0.0438294
-0.0185099
0.0154764
0.0196723
0.0249605
0.00884064
-0.00471542
-0.00475302
-0.0145925
-0.013711
-0.0113961
-0.0135703
-0.00508948
-0.00126642
0.00782499
0.0213772
0.00685773
-0.0304976
-0.0332651
0.00804196
0.0437582
0.0271899
0.0193147
0.00238292
-0.0193361
-0.0170633
-0.0252601
-0.0220805
-0.0134037
-0.0216586
-0.0147815
-0.00673782
-0.0105801
0.0121277
0.00232047
-0.0626333
-0.0420527
-0.00417801
0.0253158
-1.59132e-05
-0.00672872
-0.00734909
-0.0327545
-0.0274155
-0.0304296
-0.0284991
-0.00678417
-0.0204556
-0.0282509
-0.00672622
-0.0225806
-0.012899
-0.00770751
-0.0577207
-0.0187963
-0.00669188
-0.00199377
-0.000563188
-0.00250459
-0.00197448
-0.00250114
-0.00280944
-0.00162001
-0.00151693
-0.000783528
-0.00227465
-0.00297123
-0.00365785
-0.0055537
0.00106338
0.0025969
-0.0529135
-0.0171549
-0.00511699
-0.000152759
0.00157465
-0.00337053
-0.00333372
-0.00479485
-0.0055417
-0.00285377
-0.00229972
0.000219713
-0.00213459
-0.00383863
-0.00568036
-0.0123999
-0.00165046
-0.00116681
-0.00228934
-0.0202161
-0.00746713
0.00218172
0.00585178
-0.00144778
-0.00235159
-0.00470341
-0.00774953
-0.00406597
-0.00361779
0.000881484
0.000317107
-0.00231058
-0.00204948
-0.0146883
-0.00572015
0.000114001
0.00424549
0.03539
0.0379729
0.0273766
0.0192775
0.00457728
0.00194109
-0.000178727
-0.00822191
-0.00495445
-0.00504878
-0.000637413
0.00367154
-0.00120376
0.00371216
-0.0110484
-0.0119498
0.00596916
0.0112712
0.00247068
0.0220088
0.0228222
0.0186414
0.00476559
0.00533277
0.00848728
-0.00615118
-0.00685473
-0.00573195
-0.00574865
0.00692448
7.7506e-05
0.00541438
-0.000371846
-0.0191557
0.00568886
-0.0182414
0.00839213
0.0220873
-0.00657443
-0.022732
-0.0296322
-0.0197948
-0.00437068
-0.0210326
-0.0263235
-0.0131131
-0.0181335
0.00557187
0.00553595
-0.000414338
0.0128175
-0.0178346
-0.00996433
-0.00515921
0.0181926
0.0320173
-0.00853002
-0.0275858
-0.028853
-0.0318721
-0.0198008
-0.03831
-0.053268
-0.018146
-0.0294513
-0.00151421
0.0189665
-0.00687844
0.0223401
-0.000860365
-0.0193414
-0.0373284
-0.00242038
0.00385587
0.00824108
0.00683458
0.00316803
0.00290011
-0.000602138
-0.00159385
0.00104781
0.00126782
0.00161755
-0.000181439
-0.00256559
-0.0067193
-0.00812985
-0.0137369
0.00524089
0.0536785
0.00881443
0.00650025
0.0173198
0.0165261
0.00794751
0.00698734
-0.000501731
-0.00449077
0.00201908
0.00375101
0.00631753
0.0037781
-0.00097108
-0.00962506
-0.0126555
-0.0234887
-0.0156112
-0.0107313
-0.00782205
0.0020012
0.0180026
0.0211616
0.00934109
0.00842325
0.000976695
-0.00942215
-0.00233103
0.00190805
0.00725579
0.00967784
0.00466959
-0.00410158
-0.0114925
-0.0200365
-0.0259891
-0.00688805
0.0106142
0.0106572
0.0133738
0.017954
0.00580904
0.004907
0.0024935
-0.013114
-0.01008
-0.00370462
0.000921575
0.0120417
0.0095664
0.00462474
-0.00497076
-0.0145746
-0.0237579
-0.0354262
0.017198
0.0387785
0.045542
0.051369
0.0310204
0.0143735
0.00920329
-0.00939059
-0.014896
-0.00729744
-0.00966894
0.00708346
0.00966856
0.00888342
0.00551984
-0.00847101
-0.0189913
0.052115
0.0910697
0.0762189
0.0497529
0.043834
0.0241281
-0.000521812
-0.00297846
-0.007427
-0.0150705
-0.00334956
-0.0162525
-0.00294099
0.00454848
0.00427901
0.0130713
3.18327e-05
-0.0144138
0.0128078
0.0399557
0.0579762
0.0440508
0.0128714
-0.0130762
-0.0321671
-0.0223639
0.0016515
-0.00625887
0.0052066
-0.0190013
-0.015704
-0.00514601
-0.0052544
0.013805
0.00579824
-0.00851515
-0.00698218
-0.0072889
0.00142822
0.00349136
0.00138355
-0.00389449
-0.00292197
-0.000720042
-0.0023457
-0.00105483
-0.00373784
-0.00683691
-0.0103694
-0.0138804
-0.0205435
-0.0276779
-0.0528825
-0.0343871
0.0332961
-0.0135286
-0.00307439
0.00444433
0.00356974
-0.00877819
-0.00844048
-0.00284855
-0.00595123
-0.000429308
-0.00414734
-0.00900856
-0.0147123
-0.0188163
-0.0294032
-0.0352449
-0.076033
-0.0762357
0.0350814
0.00880466
0.00148681
0.00281605
0.00580307
-0.0106973
-0.0155805
-0.00522876
-0.0106399
-0.00265599
-0.00193694
-0.00777196
-0.012459
-0.0166265
-0.0258307
-0.0299842
-0.0646401
-0.0814486
0.00185109
0.000449558
0.00187327
0.00212011
0.00987002
-0.00787472
-0.0225933
-0.00665202
-0.0126132
-0.00853673
-0.00101012
-0.00831892
-0.0100553
-0.013713
-0.0192115
-0.0219351
-0.0515217
-0.0689285
0.0060754
0.0166329
0.0240765
0.018813
0.0264973
0.00984279
-0.0193988
-0.00274441
-0.0049051
-0.0123643
-0.00169609
-0.0121411
-0.0133808
-0.0143421
-0.0148048
-0.0130766
-0.0430766
-0.0634817
0.0437668
0.0670359
0.0740606
0.0448584
0.0354983
0.0229535
-0.0131464
0.00128675
0.0107239
-0.00933708
-0.00239631
-0.0174302
-0.0243356
-0.0237039
-0.0150646
-0.00660608
-0.0372012
-0.0686429
0.0267407
-0.0161381
0.00895746
0.020975
0.0244169
0.0244169
-0.00721752
0.000505542
0.0270291
0.00216019
0.00240931
-0.0157182
-0.0327004
-0.0381345
-0.0150896
-0.00126325
-0.0399663
-0.0736059
0.0163522
0.019283
0.0148418
0.00778592
0.00626128
0.00309108
0.000374955
0.00125592
-0.000865868
-0.00178501
-0.00563001
-0.00523576
-0.0103206
-0.0119752
-0.0160846
-0.0212074
-0.0415456
-0.00277786
0.0251433
0.0254819
0.0222348
0.0108917
0.00989038
0.00565082
-0.00092011
0.00158801
-0.00163206
-0.0027541
-0.0101951
-0.007747
-0.0185098
-0.0184838
-0.0252405
-0.0324439
-0.0660316
-0.0362369
-0.0123021
0.0206975
0.0179102
0.0048362
0.00738124
0.00908705
-0.00035735
0.00183175
-0.000801938
-0.00146208
-0.0120869
-0.00637594
-0.019659
-0.0221109
-0.021174
-0.0332742
-0.0645723
-0.0555297
-0.0216326
-0.048506
-0.0401522
-0.0296509
-0.00971639
0.0085897
0.00197438
0.00179742
-3.91803e-06
0.00121966
-0.0144647
-0.00561425
-0.0162636
-0.0278529
-0.0160151
-0.0244439
-0.061427
-0.0572661
0.0507751
0.0254342
0.0226277
0.0106117
0.00590724
0.0175799
0.0092273
0.00146657
-0.00302689
0.00408607
-0.0183921
-0.00952122
-0.0121409
-0.0322075
-0.0207245
-0.0106516
-0.0577386
-0.0461824
0.0422527
0.012923
-0.0106449
-0.0267313
-0.0248443
0.00460576
0.0178866
0.00863741
-0.00686354
0.00929493
-0.0203491
-0.0185291
-0.012897
-0.0328252
-0.0312987
-0.00709396
-0.0536878
-0.0373311
0.0788876
0.0568876
0.0238701
0.0193035
0.0104641
0.00900035
0.0147845
-0.00175796
-0.0347116
-0.000958762
-0.0246737
-0.0357975
-0.0221896
-0.0357892
-0.0337131
-0.017256
-0.0506235
-0.0414946
0.0182775
0.0181034
0.00859755
0.00457001
0.00380327
0.00723596
0.00338067
0.00286208
0.0033264
0.000688358
-0.000757143
-0.00060863
-0.00440723
-0.00325365
-0.00936976
-0.00712384
-0.0207538
0.00279743
0.0659889
0.0367729
0.0121262
0.00511117
0.00462343
0.0150514
0.00707361
0.00549232
0.00706213
0.00208544
-0.000641322
0.00074593
-0.00837752
-0.00467981
-0.016635
-0.0091726
-0.0319127
-0.0179874
0.00733086
0.00354015
-0.0084343
-0.00110626
0.00119263
0.0202224
0.0129351
0.00621602
0.0103726
0.00399705
-0.00062267
0.00510636
-0.00779072
-0.00387094
-0.0175112
-0.00984934
-0.0219546
-0.0341203
-0.0269126
-0.0157828
-0.012904
0.00736545
0.00235294
0.0236763
0.02197
0.00667953
0.0128809
0.00645243
-0.00318492
0.00953312
-0.00264425
-0.000526546
-0.0155701
-0.0140396
-0.00412583
-0.0286974
0.0456742
0.0623283
0.0443437
0.0383716
0.00360775
0.0182875
0.0310983
0.00918861
0.01444
0.0110369
-0.00797112
0.0101085
0.00479474
0.00875218
-0.00700237
-0.0262798
0.00737929
0.0105246
0.0386875
0.0557825
-0.00591505
-0.00077153
-0.0141589
0.0129675
0.0512048
0.0237615
0.0180663
0.0199121
-0.00897327
0.00865608
0.0113566
0.0236108
0.0196329
-0.0398429
-0.0126758
0.0739136
-0.0500596
-0.0100758
-0.00402444
0.0277006
-0.00273042
-0.0132681
0.0308087
0.00497416
-0.0124135
0.0054083
-0.0157686
0.0046075
0.0103465
0.0305179
0.0639184
-0.0341819
-0.0764101
0.116534
0.0395663
0.0146058
-0.0156585
-0.0249993
-0.0255284
-0.0289803
-0.043616
-0.0422005
-0.0190492
-0.0461372
-0.033869
0.00305932
-0.0419364
0.0136594
0.0578151
-0.0159916
-0.00846971
-0.0044204
0.0383286
0.0175204
-0.0129832
-0.0079041
-0.031688
-0.0473854
0.00828029
0.0283829
-0.000941343
-0.0172038
0.0160584
0.051532
-0.000639665
0.00428892
0.0608607
-0.012216
-0.0207144
-0.0126396
0.0626904
0.0489495
-0.0547802
-0.0446962
-0.0036836
-0.036629
-0.0208644
0.0080321
-0.00654809
-0.00964001
-0.00951406
-0.0276563
-0.0530473
-0.0584005
0.00467414
0.00639002
-0.0103398
0.00995195
0.0214798
-0.0131583
-0.106885
-0.042552
0.00892141
-0.060078
-0.0480818
0.052294
0.0528327
0.0234457
0.0373448
-0.0133508
-0.023415
-0.0184703
-0.0128436
0.0299158
0.012091
0.0612067
0.00335598
-0.0512813
-0.03702
0.0283353
0.0559418
0.0208752
-0.0699717
-0.00716539
0.0854472
-0.00575353
-0.0283048
-0.0179849
-0.0565984
-0.0062028
-0.0259149
-0.0400502
0.00173689
-0.0205295
-0.00205214
-0.0153106
-0.0404687
-0.0397965
-0.0158962
0.00274797
-0.0379177
-0.016765
0.0590822
-0.00936972
-0.0640367
-0.0262603
-0.00321118
0.039929
0.0683929
0.0552546
0.00875863
-0.0176605
0.0242616
0.0162114
0.0353829
-0.0325588
-0.0378761
-0.011117
-0.0318969
-0.0484015
0.0039579
0.0452881
-0.00579003
-0.0139175
0.0375175
0.0826496
0.0234728
-0.0193261
0.028403
-0.0229552
0.00706799
0.0631888
0.0276421
-0.00541972
0.01643
-0.0144907
0.00467896
0.0179855
0.0273034
0.00767729
-0.00330405
0.0486368
0.00795189
-0.000970418
0.0310551
0.00634236
-0.0406785