/*--------------------------------*- C++ -*----------------------------------*\
| =========                 |                                                 |
| \\      /  F ield         | OpenFOAM: The Open Source CFD Toolbox           |
|  \\    /   O peration     | Version:  3.0.1                                 |
|   \\  /    A nd           | Web:      www.OpenFOAM.org                      |
|    \\/     M anipulation  |                                                 |
\*---------------------------------------------------------------------------*/
FoamFile
{
    version     2.0;
    format      ascii;
    class       volScalarField;
    location    "0.1";
    object      Uz_mode_3;
}
// * * * * * * * * * * * * * * * * * * * * * * * * * * * * * * * * * * * * * //

dimensions      [0 0 0 0 0 0 0];

internalField   nonuniform List<scalar> 
244500
(
-0.0179656
0.00161615
0.00852023
0.00902134
0.00772728
0.00505217
0.00236087
0.00751763
0.000214085
-0.00647301
-0.00366824
-0.00257617
0.00124656
0.00220899
0.00356854
0.000377801
-0.000115096
0.0363058
-0.0725761
-0.0229519
0.0121075
0.018751
0.0193427
0.0122245
0.00391362
0.0176264
0.00351701
-0.0137835
-0.00995054
-0.00856673
0.00180129
0.00842303
0.0112529
-0.00233061
-0.00876386
0.00683061
0.0633872
0.000401883
0.00208272
0.0112658
0.021912
0.0192747
-0.000888451
0.0219219
0.0161933
-0.0130652
-0.013137
-0.0180196
-0.00901732
0.00587147
0.0250648
0.00690566
-0.00643027
-0.00524605
-0.0966074
-0.0958529
-0.0519048
-0.0258732
0.00185213
0.0215373
-0.0114433
0.0122415
0.0295761
-0.00457008
-0.00753324
-0.019786
-0.0245526
-0.0163152
0.0284482
0.0237291
0.00306974
-3.73064e-05
0.116966
0.103864
0.0964921
0.0644528
0.0477587
0.0624476
-0.0029606
-0.00616536
0.0357894
0.00778369
0.00603053
-0.00585628
-0.0241343
-0.0472947
0.00354308
0.0322439
0.0116051
0.0224768
-0.0784086
-0.0359049
0.0108488
0.0143302
-0.0136596
0.0314347
-0.0204559
-0.0354441
0.0413062
0.0315284
0.0298499
0.0188653
0.000872244
-0.0572409
-0.0430675
0.0164812
0.00159125
0.0568658
-0.00300379
0.0375664
0.13246
0.15072
0.0537407
0.0862246
0.0297941
-0.0378477
0.0371386
0.0366783
0.0361814
0.0221539
0.0207767
-0.0358613
-0.0889412
-0.0115495
-0.0350779
0.0372828
0.0349376
-0.000314473
-0.017107
-0.0118238
0.000563346
0.00374139
-0.00314598
-0.00747946
-0.00863682
-0.00849419
-0.00321927
-0.00432882
-0.0172719
-0.0201848
-0.0483251
-0.0684847
-0.146326
-0.155151
-0.0515504
-0.0462382
-0.0525292
-0.0408114
-0.00777465
0.0116717
0.00080139
-0.0116525
-0.0212633
-0.0228982
-0.0075089
-0.00256335
-0.0244765
-0.0184105
-0.0702608
-0.0838045
-0.206538
-0.224229
0.0583994
-0.00700435
-0.0587625
-0.0638421
-0.0262249
0.0152179
0.0128919
-0.0031556
-0.0240525
-0.0422705
-0.0231878
-0.0026006
-0.0290842
-0.00557238
-0.0571822
-0.0745296
-0.169458
-0.234511
-0.0897086
-0.0823665
-0.0765312
-0.0741041
-0.0453949
0.0117606
0.024802
0.0111018
-0.0124077
-0.0579765
-0.0514449
-0.0122889
-0.0424084
-0.0069075
-0.0284298
-0.0637065
-0.119747
-0.207603
0.011824
0.0671127
0.0510146
0.00513513
-0.0203371
0.02314
0.0414648
0.0208034
0.00444655
-0.0631099
-0.0853729
-0.0322119
-0.061401
-0.0349836
-0.010767
-0.0456471
-0.08105
-0.171341
-0.0412485
0.0395359
0.0252533
-0.0067513
-0.0314791
0.00986982
0.0281483
-0.0185619
-0.0224195
-0.081359
-0.125569
-0.0635722
-0.0775051
-0.0763224
-0.0270512
-0.0306334
-0.0411288
-0.145755
0.00720324
0.0573987
0.0478584
0.0376268
-0.00153425
0.0131802
0.0432222
-0.0174289
-0.0145325
-0.0567298
-0.125905
-0.0862089
-0.0822241
-0.0939586
-0.061781
-0.0365789
0.0141039
-0.126242
-0.0552143
-0.00464607
0.000900916
-0.00147953
0.00151567
0.00355477
-0.000511747
-0.00395964
-0.000384153
-0.00185412
-0.00601451
-0.0108009
-0.0219373
-0.027779
-0.0419846
-0.0614909
-0.106161
-0.117112
0.0620776
0.030463
0.00548852
-0.00790836
-0.00269573
0.006702
0.00200983
-0.00601023
0.00166836
0.000954739
-0.00798658
-0.0156008
-0.0385973
-0.0439349
-0.0622946
-0.0851077
-0.148285
-0.206345
0.00451899
-0.00835125
-0.0170414
-0.018987
-0.00980074
0.00782857
0.0090624
-0.00409201
0.00276286
0.00870431
-0.00283554
-0.0075794
-0.0395367
-0.0525143
-0.06249
-0.083963
-0.126053
-0.203441
-0.071403
-0.106373
-0.0812965
-0.046752
-0.020251
0.0079463
0.0190825
0.00451614
0.00302828
0.0170694
0.00517207
0.0046721
-0.0241527
-0.0587434
-0.0620659
-0.0840434
-0.100986
-0.175285
-0.050129
-0.0642662
-0.0476714
-0.00357701
0.0255929
0.0450717
0.0472512
0.0301851
0.0110724
0.0247221
0.0163903
0.0102194
0.00186686
-0.0518671
-0.0639562
-0.0886624
-0.088198
-0.151896
-0.0479676
-0.0687081
-0.0216925
0.0461586
0.0664436
0.0683066
0.0490856
0.0442853
0.0219581
0.0249683
0.0331162
0.00701316
0.0181036
-0.0280298
-0.0626993
-0.0988593
-0.080149
-0.140191
0.036469
-0.0230632
-0.0564634
0.00411537
0.0207107
0.0351927
-0.00645791
0.0107616
0.0213644
-0.00046818
0.0376538
-0.00500663
-0.00756834
-0.0127106
-0.0560893
-0.126237
-0.0673575
-0.116904
0.00380101
0.0132772
0.0181361
0.0118149
0.00418043
-0.00121346
-0.00631313
-0.00309361
-0.000753988
-0.000526552
-0.00126343
-0.00489813
-0.00713685
-0.00645856
-0.0103389
-0.00506788
0.0049688
0.0368191
-0.00405434
0.0100494
0.0282067
0.0241562
0.00937015
-0.00247476
-0.0152777
-0.00940568
-0.000991401
0.00350086
0.00299128
-0.00345277
-0.0121205
-0.0088657
-0.0205441
-0.0132701
0.00210617
0.0144393
-0.0535606
-0.031777
0.0172566
0.0306474
0.0149998
8.92795e-05
-0.0200418
-0.01947
-0.00863229
0.00334885
0.00834459
0.00729419
-0.0094127
-0.00489367
-0.0202098
-0.0256215
0.0111792
0.00471307
0.143745
0.096549
0.0561833
0.0367017
0.0107256
-0.00418897
-0.0228583
-0.0267083
-0.0216012
-0.00571185
0.00379152
0.0191647
0.000428537
0.00213968
-0.00623862
-0.0448596
0.0160074
0.0199245
-0.111151
-0.055793
-0.0503879
-0.0398837
-0.0417944
-0.0363583
-0.0328173
-0.0229501
-0.0274643
-0.0157834
-0.0157464
0.0186032
0.0120652
0.00583499
0.0219869
-0.0602406
0.00449041
0.0487463
-0.0597318
-0.104389
0.0194071
0.127232
0.138118
0.101637
0.0644019
0.0575491
0.0124445
-0.00160643
-0.0387533
-0.000661257
0.0167695
-0.00247551
0.0531913
-0.0672324
-0.0203008
0.0782183
-0.143992
-0.0519166
0.050807
0.0651249
0.0601694
0.0585269
0.0606806
0.0890595
0.0172464
-0.0108655
-0.088289
-0.047075
0.000933282
-0.0333202
0.0702802
-0.0831822
-0.0612512
0.0950617
-0.0145033
-0.0199402
-0.00920914
-0.00627051
-0.00324386
-0.00168865
-0.00291988
-0.00137128
-0.00305952
-0.00612022
-0.00530553
-0.00929931
-0.00580962
-0.00360208
-0.00287683
0.00700214
0.0186867
0.0241657
-0.121784
-0.0730265
-0.0239348
-0.00756556
-0.000570784
0.00156231
-0.00386113
-0.0015372
-0.0034022
-0.00966352
-0.00800949
-0.0179439
-0.0120062
-0.00903455
-0.0114189
0.00756319
0.0269833
0.0393894
-0.141647
-0.0983595
-0.026379
0.00422637
0.0141116
0.0162454
0.0032103
-0.000126705
-0.00141502
-0.00988293
-0.00422537
-0.0179478
-0.0149633
-0.00727
-0.0214611
-0.00296639
0.0224849
0.0413595
-0.0320986
-0.0150912
0.0301179
0.0532582
0.0530428
0.0469466
0.0222452
0.0050327
-0.0004444
-0.0133813
-0.00205811
-0.0107946
-0.0153604
0.00411536
-0.0198754
-0.0167604
0.0127432
0.0276329
0.0184425
0.108598
0.135429
0.109571
0.0648084
0.0406241
0.0168338
-0.00352326
-0.0103658
-0.0256123
-0.0128575
-0.00228354
-0.0122908
0.0184945
0.00331475
-0.0194627
0.0118946
0.0061231
-0.0693581
-0.0858775
0.00571349
0.0684194
0.082085
0.0758254
0.0538598
0.0188017
-0.00966294
-0.0288616
-0.0306055
0.00415649
0.00394749
0.0302288
0.0443503
-0.00247312
0.0275418
-0.00132551
0.154043
0.0019377
-0.0771869
-0.0910142
-0.0346196
0.0139323
0.0336724
0.0276492
-0.0096844
0.00241908
-0.0169066
0.0228139
0.0511574
0.0420856
0.0849982
0.0269249
0.0509875
-0.0121418
-0.0607764
-0.0101136
0.00303606
0.00134177
-0.00104943
-0.00139356
0.00491578
0.0048029
0.00158273
0.00149603
-0.00254618
0.00038027
0.00375549
0.00482064
0.00737539
0.00911379
0.00177745
-0.00801643
0.00490617
-0.0100659
0.00194631
0.00343563
-0.000707308
-0.00439853
0.00797038
0.0112237
0.00957228
0.0104978
-0.000447505
0.00234279
0.00616513
0.00835764
0.0158861
0.0195811
0.00802195
0.00733644
0.0781887
0.0103571
0.0110281
0.0103894
0.00623482
-0.00326976
0.0094896
0.0147271
0.0154762
0.024597
0.00903644
0.00783507
0.00760253
0.00473676
0.0157064
0.0272826
0.00669858
0.0136169
-0.0246215
-0.0411298
-0.00480824
0.0116861
0.0185587
0.00589113
0.0171315
0.0212279
0.0168133
0.0386122
0.0229438
0.0199799
0.0161276
-0.00129325
0.00528871
0.0319428
0.00425363
-0.00119799
-0.0289964
-0.0121414
0.00940135
0.0096807
0.0229122
0.00882519
0.0224533
0.0317458
0.0146826
0.0493102
0.0348335
0.032505
0.0350369
-0.000764505
-0.014111
0.0258976
0.00830116
-0.0305623
0.0484394
0.0459911
-0.0212585
-0.0989543
-0.0881955
-0.0848217
-0.0395814
0.0124417
-0.00142283
0.0562795
0.0420205
0.0334873
0.0539228
0.0101788
-0.032969
0.000170817
0.0135255
-0.0489458
0.053896
0.0224742
-0.0299771
-0.0723983
-0.0149587
-0.0154854
-0.000500846
0.0441893
-0.00829715
0.0509958
0.0189751
-0.00684033
0.0407267
0.013793
-0.0387402
-0.036822
0.00619721
-0.0512032
-0.0339317
0.0043281
6.31638e-05
-0.00138863
-0.00452768
-0.00375106
0.00458896
0.00042103
0.00189621
0.00285634
0.001289
0.00674122
0.00553949
0.00408531
0.00699051
0.00350571
0.00930289
-0.017229
-0.0593531
-0.0137059
-0.0147227
-0.0116489
-0.0151427
-0.0155366
0.0036956
-0.000697678
0.00376858
0.00593008
0.00289679
0.0135358
0.0103229
0.00491879
0.013472
0.00325714
0.0164135
-0.00435034
-0.094968
-0.0511326
-0.0492057
-0.0329122
-0.0281601
-0.0339493
-0.00763519
-0.00853032
-0.00151794
0.00467573
-0.00160151
0.0150552
0.0156389
0.00166718
0.0156884
0.00459295
0.0103497
-0.00336543
-0.0710954
-0.0782241
-0.0781658
-0.0531121
-0.0410707
-0.0561376
-0.0268138
-0.0243543
-0.0152702
-0.00145594
-0.0131494
0.00778249
0.021532
-0.00257667
0.011547
0.00860773
0.00882369
-0.00511163
0.0802951
0.0560737
0.00984657
-0.0052095
-0.0111241
-0.0488801
-0.0300551
-0.0369823
-0.0334161
-0.0102337
-0.0269386
-0.0100276
0.0241199
-0.00401653
0.000969102
0.00635222
0.0102995
0.002111
-0.00196267
0.0455256
0.0443446
0.0776276
0.0822775
0.000347557
-0.0216243
-0.0547797
-0.0573373
-0.0163544
-0.0280669
-0.0265161
0.0235524
0.000948092
-0.00858338
-0.00428432
0.00637009
0.00830497
0.104878
0.0958834
0.0474041
0.0824707
0.0825619
-0.0186509
-0.0246144
-0.0366829
-0.0324268
0.0112831
-0.00299414
-0.0338749
0.0174532
0.0099387
-0.00787317
-0.0153565
0.00109351
0.0157511
0.028839
-0.0272978
-0.0207293
-0.00958833
-0.00398956
-0.00585892
-0.00601376
-0.00772627
-0.00414882
0.0054678
0.00970595
0.010667
0.0170532
0.016313
0.0215855
0.0296421
0.0545546
0.025787
-0.106195
-0.0772465
-0.0427635
-0.0171147
-0.00537109
-0.0112716
-0.0136667
-0.0193669
-0.0162144
0.00307377
0.0135053
0.0178099
0.0343338
0.0270214
0.0377718
0.0452628
0.0842882
0.0693876
-0.179426
-0.103993
-0.0592301
-0.0253585
-0.00394277
-0.0102416
-0.0159338
-0.0245262
-0.0299204
-0.00964144
0.00529975
0.00758435
0.0405258
0.0323242
0.0389749
0.0512049
0.0834887
0.0698609
0.0578257
-0.0415214
-0.0549583
-0.0292787
-0.00033988
-0.00271738
-0.0122322
-0.0218019
-0.0364356
-0.0225686
-0.00472357
-0.0171275
0.0307213
0.0355239
0.0308494
0.0516298
0.0951274
0.0573649
-0.0444373
-0.0180323
-0.0349801
-0.0373474
-0.00571791
0.00929991
0.00144072
-0.0117343
-0.0315217
-0.0271373
-0.00339116
-0.0408296
0.00434284
0.0319855
0.0180738
0.0345121
0.116559
0.0743283
-0.0808422
-0.0465157
-0.045562
-0.0201402
0.0142575
0.0241676
0.00418946
-0.0233283
-0.0338611
-0.0248366
0.0156864
-0.0441283
-0.0227705
0.0211344
0.00663411
0.000515496
0.12092
0.1268
-0.0420387
0.0648939
0.0409583
0.0331765
0.011593
-0.00840612
-0.0185071
-0.0492743
-0.0406566
-0.0151768
0.0368255
-0.0411452
-0.0419046
0.0100414
-0.000782856
-0.0329889
0.102486
0.16686
-0.00472164
-0.0141944
-0.00857769
-0.0038702
-0.00143577
-0.00331919
-0.00241995
0.00104426
0.00222113
0.00962764
0.00969564
0.0078779
0.013092
0.015099
0.0231495
0.0331347
0.0606891
0.0326562
-0.00417136
-0.0279051
-0.0209579
-0.00824705
0.000654217
-0.00514945
-0.00417736
0.00102028
0.00151133
0.0198935
0.0183997
0.0120782
0.0231748
0.019186
0.0310206
0.0477663
0.0959154
0.091078
-0.0687703
-0.0507415
-0.0270004
-0.00957005
0.00660041
-0.00101112
-0.00459461
0.00477325
-0.00503923
0.0228836
0.0275999
0.00888664
0.0269404
0.0211909
0.0173923
0.0336871
0.0808289
0.108472
0.0314406
0.0254353
0.0156155
0.00891751
0.0224717
0.0144742
-0.002707
0.0177654
-0.00878328
0.0174468
0.0433371
0.00442453
0.0210248
0.0311211
0.00952437
0.00499522
0.0438629
0.103299
0.0461793
0.00647819
0.0322558
0.0290502
0.0396417
0.0397249
-0.00357055
0.0334293
-0.000522401
0.00045365
0.062055
0.011452
0.00207759
0.0331925
0.024394
-0.0114377
-0.0121452
0.0859686
-0.0185305
0.0419444
0.0476675
0.00832544
0.00448258
0.042522
-0.0248904
0.0276291
0.0192091
-0.0275873
0.0650772
0.0360237
-0.0161336
0.00729038
0.0434672
0.0140408
-0.0665969
0.0402135
0.0761673
0.0921339
0.0593028
0.0017865
-0.0348424
0.0521615
-0.0295549
0.00908643
0.0496483
-0.060639
0.0208179
0.0516622
-0.0230552
-0.0468636
0.0403117
0.0681414
-0.0787806
-0.0272278
-0.0361774
-0.00264598
0.00891791
0.00241942
-0.00137916
0.000826522
0.00844391
0.0166349
0.0133837
0.00930854
0.00321395
-0.000436211
0.00512382
0.00574798
0.019003
0.0301624
0.0570395
0.0513832
0.0115091
0.0214098
0.0345451
0.0191633
0.00388923
0.000433031
0.0139717
0.0328349
0.0289871
0.0230994
0.00837076
-0.00278504
0.00595595
0.00377912
0.0223795
0.039493
0.080631
0.103023
0.126814
0.0946642
0.0750353
0.0485964
0.0222996
0.00537605
0.010562
0.0384122
0.0372389
0.0369089
0.0214193
-0.000943264
0.00531913
0.00282518
0.011622
0.0284134
0.0596126
0.0908444
-0.0775121
-0.0246494
0.0484077
0.0671748
0.0482512
0.0207333
0.00505864
0.0363353
0.0355751
0.0420045
0.0378297
0.00913739
0.00440226
0.00847046
0.00802823
0.0173694
0.0319724
0.0491916
0.0359184
-0.0329099
-0.00855032
0.0143615
0.0091824
-0.00352216
-0.0283406
0.0126627
0.0174075
0.0274595
0.0415572
0.0252645
0.00379118
0.0103367
0.0170199
0.0247621
0.0177999
0.00616674
-0.14274
-0.0806466
-0.0043359
0.0155944
-0.00871031
-0.0156913
-0.0540482
-0.01063
0.000149284
0.00638547
0.0234038
0.0366468
0.0104431
0.000448063
0.0199834
0.058684
0.0435895
-0.0447943
0.0579145
-0.0399993
-0.0872747
-0.0604456
-0.0696406
-0.0517984
-0.0839514
-0.0312162
-0.00173096
0.0110082
0.00549276
0.0400432
0.039983
0.00654219
0.0043013
0.103112
0.155655
-0.101294
-0.0173804
0.00258354
0.00843318
0.0118492
0.00711633
0.00625371
0.00440572
0.00898238
0.00287371
-0.00242453
0.00121334
0.00487569
0.0108971
0.0151777
0.0221407
0.0258233
0.0375155
0.0741557
-0.0718158
-0.021354
0.0103882
0.024467
0.0173124
0.0143959
0.00707159
0.0196719
0.00759884
-0.00689769
-0.00222709
0.0030526
0.0171002
0.0287588
0.0397052
0.0357325
0.050228
0.0756544
0.0642851
0.00361657
-0.00260749
0.0193341
0.0192739
0.0203704
0.00366406
0.0231795
0.0194706
-0.00599733
-0.00491612
-0.00679899
0.00590043
0.0267779
0.0514231
0.0441016
0.0451567
0.065799
-0.0964165
-0.0889219
-0.0612211
-0.0156835
-0.000154436
0.0194992
-0.00469522
0.0127688
0.0313317
0.00071562
0.00094165
-0.00923332
-0.0134153
0.00493946
0.0496381
0.0568418
0.042736
0.0623163
0.114436
0.11808
0.0815974
0.0758378
0.0483051
0.0551695
0.00608486
-0.00560205
0.0366669
0.00977294
0.0134873
0.00701835
-0.0190948
-0.0267862
0.0249672
0.0556846
0.0417459
0.0888928
-0.0883497
-0.0091164
-0.00856897
0.0222145
-0.00771927
0.0178987
-0.00960929
-0.0350556
0.0416412
0.0303672
0.032536
0.037122
0.00273746
-0.0459956
-0.0104986
0.0340305
-0.00173587
0.143304
-0.0251397
0.0767646
0.110999
0.160108
0.0693914
0.0620478
0.0401874
-0.0344981
0.0384625
0.0330023
0.0304473
0.0424116
0.0282408
-0.0435234
-0.0457366
0.0245947
-0.096714
0.106736
0.0359257
-0.000484562
-0.0176642
-0.00868765
-0.00108934
0.00736612
-0.00213929
-0.00530276
-0.00427341
-0.00548414
0.00193087
0.00447357
-0.00902814
-0.00670236
-0.0228746
-0.0417592
-0.0857029
-0.0994399
-0.049408
-0.0461869
-0.0551247
-0.0348255
-0.0118641
0.0184337
0.0018086
-0.0082783
-0.0135004
-0.018878
0.00107049
0.0107593
-0.0130273
0.000271862
-0.0297759
-0.0554888
-0.114133
-0.144215
0.0617001
-0.00549129
-0.0644329
-0.0558117
-0.0328334
0.0224908
0.0149751
-0.00217516
-0.0132967
-0.0396569
-0.0141663
0.0128737
-0.0194762
0.00856991
-0.00971454
-0.0571197
-0.0885044
-0.130253
-0.086012
-0.0774218
-0.0858971
-0.0638763
-0.0545185
0.0171559
0.0299952
0.00716788
0.00181845
-0.0570574
-0.0450281
0.00828946
-0.0357286
-0.00303318
0.0273935
-0.0550828
-0.0700207
-0.0900527
0.0144467
0.0774164
0.0374542
0.0178217
-0.0308799
0.0240061
0.0514245
0.0109076
0.0217533
-0.0616572
-0.0869397
-0.00231177
-0.0530419
-0.0513979
0.0602522
-0.0357183
-0.0777324
-0.0591643
-0.0440116
0.0595776
0.010984
0.00622554
-0.042425
0.00456305
0.0422931
-0.0334556
-0.00242216
-0.0758172
-0.142045
-0.0229079
-0.0529369
-0.130573
0.0584876
0.014337
-0.100774
-0.0745605
0.00161043
0.0785402
0.0380537
0.0454928
-0.0120313
0.00996363
0.0548007
-0.0398972
0.0118477
-0.0430768
-0.16825
-0.0366659
-0.0137106
-0.202399
0.00641276
0.0975099
-0.0849561
-0.163483
-0.055578
-0.00375753
0.000873779
-0.0010956
0.00242291
0.00498912
0.00042527
-0.00181143
0.00246913
0.000747332
-0.00203202
-0.0047634
-0.0159526
-0.0154334
-0.0279398
-0.0409268
-0.0680666
-0.080286
0.0610753
0.0323417
0.00572755
-0.00782275
-0.00146691
0.00954698
0.00243796
-0.00221761
0.00636111
0.00427836
-0.00156377
-0.00640539
-0.031402
-0.0258232
-0.042191
-0.060883
-0.0907398
-0.151225
0.00248289
-0.0058637
-0.0157412
-0.0193481
-0.00953924
0.0122342
0.00844307
-0.00119685
0.00960052
0.0104887
0.00360763
0.0035754
-0.0340745
-0.0361027
-0.0391
-0.0678722
-0.0699297
-0.139998
-0.0746346
-0.103325
-0.0782165
-0.0467795
-0.0222714
0.0141239
0.0188481
0.00338113
0.0132346
0.0176118
0.00854985
0.0184969
-0.0188556
-0.0479097
-0.0353675
-0.0744695
-0.0582236
-0.102702
-0.0544626
-0.062733
-0.0422713
-0.000908877
0.0205285
0.0519195
0.0511261
0.0220392
0.0234566
0.028163
0.0133112
0.0247209
0.0112046
-0.0470859
-0.0369749
-0.0781413
-0.0663456
-0.0753346
-0.0532647
-0.0684422
-0.0134435
0.0508988
0.0569175
0.0728462
0.0624972
0.0300142
0.030283
0.0374042
0.0241323
0.0154408
0.0347226
-0.02572
-0.0402155
-0.0798028
-0.0791106
-0.08031
0.034614
-0.029588
-0.0502442
0.0175332
0.0141847
0.0300791
0.0140431
-0.0028507
0.0150774
0.0249801
0.0314945
-0.0127026
0.0153485
-0.0067576
-0.0434125
-0.0941687
-0.0761707
-0.0917195
0.00390536
0.0146349
0.0175498
0.0126634
0.00505479
-0.000639694
-0.0049739
-0.00269488
0.00172669
0.000218737
0.000236523
-0.001147
-0.00379303
-0.00275873
-0.00647789
0.000355373
-0.000507663
0.0362046
-0.00448516
0.0129366
0.0272357
0.024808
0.0111599
-0.00167107
-0.0135121
-0.00887771
0.00335081
0.00367439
0.00423319
0.00310159
-0.00793114
-0.0038246
-0.014381
-0.0031499
-0.00698937
0.0141393
-0.0550352
-0.0276981
0.0170214
0.0301788
0.0171134
0.00150258
-0.0184494
-0.0199808
-0.00235771
0.00385994
0.00643427
0.0155397
-0.00449496
-0.00114054
-0.0135279
-0.0104289
0.00191215
0.00152418
0.141149
0.101089
0.0578133
0.0351883
0.0119843
-0.00153488
-0.0206538
-0.030055
-0.0137685
-0.00180584
-0.00322441
0.0273297
0.00807062
0.00278044
1.367e-05
-0.0248105
0.0100487
0.0109864
-0.115368
-0.0506783
-0.0448946
-0.0414593
-0.0434673
-0.0327869
-0.0277556
-0.0302881
-0.0209013
-0.00442603
-0.0273696
0.0230597
0.0255197
0.000373498
0.0291026
-0.035752
-0.00124648
0.0283445
-0.0620812
-0.105173
0.025109
0.130237
0.133838
0.105058
0.0745451
0.0466788
0.0125453
0.020257
-0.05184
-0.00515838
0.0424259
-0.0210068
0.0600314
-0.0262144
-0.032889
0.0235738
-0.143832
-0.0594614
0.0623273
0.0768807
0.0466994
0.0568197
0.0775075
0.0803545
0.00618577
0.0234339
-0.0981563
-0.0691536
0.0511783
-0.0705983
0.0603069
-0.00322926
-0.0698841
-0.00720355
-0.0145566
-0.0193191
-0.00897283
-0.0065653
-0.00228344
-0.00209314
-0.00229944
-0.00139975
-0.00262849
-0.00500853
-0.00736569
-0.00792132
-0.00740875
-0.00797055
-0.00749659
0.000803778
-0.00597733
0.0251095
-0.122304
-0.072011
-0.0233537
-0.00854343
0.00141183
0.000792466
-0.00281541
-0.00181948
-0.00299485
-0.00739887
-0.0134345
-0.0142552
-0.0155847
-0.0172136
-0.0171109
0.000169205
-0.0120946
0.0181653
-0.142872
-0.0972099
-0.0247951
0.00228165
0.0165793
0.0155728
0.00441533
-0.000243851
-0.00187767
-0.00449331
-0.0133982
-0.0130149
-0.014837
-0.0211525
-0.0239494
-0.00573545
-0.0133663
0.00487471
-0.033879
-0.0142136
0.0334891
0.0504358
0.0552691
0.0465121
0.0235091
0.0058087
-0.00347965
-0.00276057
-0.0137574
-0.00944371
-0.00476565
-0.0173246
-0.0220293
-0.0102507
-0.0139331
-0.0170142
0.016343
0.107431
0.141589
0.107315
0.0661561
0.040061
0.0176895
-0.000534272
-0.0178428
-0.0100135
-0.0222977
-0.0111042
0.0116951
-0.00674296
-0.00514323
-0.00572103
0.000582399
-0.0417685
-0.0709263
-0.0904418
0.0150305
0.0677844
0.0800827
0.0744536
0.0543638
0.0252688
-0.0214767
-0.0113446
-0.033147
-0.0170307
0.0387192
0.00555011
0.0287373
0.0112224
0.0279948
-0.0305778
0.158216
-0.012743
-0.072427
-0.0778388
-0.0319406
0.00766921
0.0300365
0.0324988
-0.0232462
0.0228556
-0.0150372
-0.0060025
0.0961471
0.0148711
0.0647121
0.0439097
0.0428484
-0.00760557
-0.0606875
-0.00998193
0.002431
0.00222042
-0.000754106
-0.00226911
0.0062081
0.00369831
0.00150636
0.00138463
-0.00513873
0.000412368
1.06809e-05
0.00204786
0.00189752
0.00312587
-0.0084482
0.00157195
0.00507632
-0.00953613
-3.92093e-05
0.00472253
0.000424428
-0.00665445
0.0108914
0.00864201
0.00933903
0.0107211
-0.00667837
0.00332126
-0.00173032
0.00367737
0.00465787
0.00869
-0.00984152
-0.00703951
0.078223
0.0120816
0.00790733
0.0105378
0.0090195
-0.00727311
0.0139967
0.0121655
0.0138048
0.0280946
-0.000601256
0.0102484
-0.00014897
-0.00105646
0.0062518
0.0114553
-0.00306894
-0.0129368
-0.0252195
-0.0374195
-0.00813551
0.00915413
0.0235431
-0.000491965
0.0225801
0.020887
0.0110909
0.0477344
0.0114252
0.0211893
0.012433
-0.00984731
0.00239672
0.0110841
0.00043134
-0.0140754
-0.0313966
-0.00643271
0.00782562
0.00351583
0.0305767
-0.000410242
0.02692
0.0369202
0.00218689
0.0633243
0.0263143
0.0281066
0.0374789
-0.0130468
-0.010894
0.00671318
-0.00490304
-0.0206998
0.0444858
0.0540071
-0.0198812
-0.109311
-0.0774919
-0.0970382
-0.0399671
0.0268939
-0.0210838
0.069947
0.0432847
0.0208669
0.0615389
-0.00372952
-0.031606
-0.00391877
-0.015986
-0.0431354
0.0503549
0.0247357
-0.0246862
-0.0824386
0.00153726
-0.0297649
-0.0111886
0.071227
-0.0320648
0.0554643
0.0354313
-0.0267624
0.0494794
0.00619517
-0.0529401
-0.0218885
-0.0190262
-0.0784433
-0.033618
0.00313621
0.000292811
-0.000978245
-0.00573372
-0.00376859
0.0037398
-0.000669236
-2.55083e-05
0.000647332
-0.000601571
0.00243837
0.00205102
-0.000466212
-0.00156006
-0.00777178
-0.0061664
-0.0257937
-0.0582631
-0.0162556
-0.0149674
-0.0101945
-0.0173021
-0.015833
0.00265865
-0.00255606
8.38087e-05
0.00198064
-0.000756771
0.00521191
0.00413386
-0.00303342
-0.00309137
-0.0157273
-0.00822907
-0.0336776
-0.0926761
-0.0542526
-0.051121
-0.0305881
-0.0301035
-0.0347796
-0.00822119
-0.00956679
-0.00571026
0.000156194
-0.00412936
0.00463785
0.00875567
-0.00366272
-0.00206835
-0.0182369
-0.00894376
-0.0346552
-0.06741
-0.0814799
-0.0823901
-0.0508091
-0.0422
-0.0573731
-0.0275192
-0.0235229
-0.0189736
-0.00726075
-0.0123372
-0.0033023
0.0121736
-0.00241938
-0.00212063
-0.0187356
-0.00371755
-0.0234487
0.0856852
0.0523308
0.00300097
-0.00432468
-0.0114023
-0.0496426
-0.0318808
-0.0342343
-0.0348958
-0.0188667
-0.0228162
-0.0182605
0.00912522
-0.000705528
-0.00299128
-0.0258106
-0.00202669
0.000723799
0.00304032
0.0456882
0.0369707
0.0765437
0.0818732
-0.000603932
-0.0258796
-0.0514205
-0.0544904
-0.027696
-0.0243298
-0.0278733
0.00374894
-0.000544979
-0.000127944
-0.0350746
-0.0171057
0.0176885
0.112116
0.0983972
0.0346305
0.0724534
0.0806827
-0.0154196
-0.0261911
-0.0327997
-0.0256847
-0.000162917
-0.0058768
-0.0282046
-3.59204e-05
-0.00403982
0.00517483
-0.0301411
-0.03916
0.0178039
0.0289474
-0.0278959
-0.0195042
-0.00969883
-0.00569293
-0.0046483
-0.0075784
-0.00942789
-0.00417988
0.00194259
0.00695578
0.00859552
0.0132078
0.0112654
0.0166892
0.0233107
0.045074
0.0327034
-0.105645
-0.0793306
-0.0406944
-0.0163275
-0.00927615
-0.00827764
-0.016352
-0.0232769
-0.0150226
-0.00485838
0.00896969
0.0136762
0.0253057
0.0187539
0.0258151
0.0327064
0.0644902
0.0586261
-0.177912
-0.107837
-0.0579426
-0.0222249
-0.00992925
-0.00647718
-0.0162097
-0.0321832
-0.0248723
-0.0194327
-0.00147815
0.00687038
0.0273148
0.0251575
0.0274684
0.0349957
0.0682683
0.0534453
0.0609299
-0.0472041
-0.0564783
-0.0230341
-0.00756993
-0.000953661
-0.00629059
-0.0349269
-0.0275294
-0.0298701
-0.0185413
-0.00900557
0.0143436
0.0266783
0.0274279
0.0316002
0.0845167
0.0630263
-0.0391728
-0.0240326
-0.041257
-0.0285106
-0.0109969
0.0047509
0.0163355
-0.0293892
-0.023175
-0.0246156
-0.030764
-0.0228818
-0.00856467
0.0124639
0.0265523
0.0160439
0.0949866
0.113355
-0.0737273
-0.0511119
-0.0556037
-0.0139283
0.0156854
0.00968556
0.0276536
-0.039688
-0.0334699
-0.00531651
-0.0286496
-0.022969
-0.0204116
-0.0168425
0.0203417
-0.000927295
0.0747069
0.173469
-0.0344396
0.07003
0.0243011
0.0218762
0.0291962
-0.029383
0.00623839
-0.0583066
-0.0518745
0.0237723
-0.0228838
-0.0255548
-0.0145061
-0.0464574
0.000269012
-0.00128352
0.0393593
0.18477
-0.00546125
-0.0121854
-0.0102083
-0.00369993
-0.00189419
-0.0057333
-0.00293788
-0.001705
0.000712762
0.00695543
0.00525181
0.00482774
0.00894713
0.0104184
0.0218746
0.035582
0.0735053
0.0461184
-0.00632354
-0.0233416
-0.0237887
-0.00865686
-1.88815e-05
-0.0089946
-0.00538161
-0.00454669
6.69068e-05
0.0144851
0.0101888
0.00578199
0.0143715
0.00723448
0.0242851
0.0438076
0.103863
0.106786
-0.0731086
-0.0435622
-0.0290499
-0.0106329
0.0058623
-0.00578188
-0.004203
-0.00422885
-0.00494937
0.0181871
0.0175535
0.00274274
0.0183877
0.00586841
0.00658105
0.0293196
0.0791682
0.117981
0.0246911
0.0351732
0.0154136
0.00812257
0.0220574
0.00641764
0.00248972
0.00421182
-0.00890818
0.0169756
0.0310034
-0.000556007
0.0163611
0.0160496
-0.00702268
0.00521899
0.0433347
0.0847664
0.0352086
0.0209325
0.0349296
0.0294973
0.0423463
0.023281
0.00868744
0.0168388
-0.00617377
0.00746011
0.0478012
0.004847
0.00341195
0.0242465
-0.00193786
-0.0128949
0.0182775
0.0188143
-0.0320781
0.0560003
0.0506813
0.00837796
0.0165539
0.0144478
-0.00604346
0.0135922
0.00183591
-0.0127965
0.0533763
0.0224642
-0.0121314
0.0151385
0.00749421
-0.0136753
0.0183406
-0.0161151
0.0512044
0.114782
0.078286
-0.00551135
-0.0097431
0.0132007
-0.0093632
0.000706652
0.0136428
-0.0422656
0.0207305
0.0292123
-0.0277908
-0.00863056
0.00188364
-0.00100682
0.0223518
0.0292303
-0.0358764
-0.0011712
0.00510419
0.0034178
-0.00225794
-0.00175059
0.00802317
0.0141417
0.0115955
0.0060605
-0.000646247
-0.00496094
9.93845e-05
0.000604408
0.0164959
0.0250021
0.0652517
0.0543344
0.0114506
0.0262418
0.0268423
0.01956
0.00350661
-0.00487104
0.0136109
0.0284948
0.0266465
0.0174437
0.00131245
-0.0116642
-0.00197362
-0.0095667
0.0174094
0.0221386
0.0840335
0.108264
0.12539
0.104265
0.0664803
0.0459053
0.0237246
-0.00194687
0.0103115
0.0332696
0.0354152
0.0321184
0.0144567
-0.0132053
0.000414999
-0.0148183
0.00571421
0.0107729
0.0468151
0.110875
-0.0814383
-0.00991448
0.0421108
0.0595564
0.0512522
0.0117412
0.00428183
0.0308052
0.0333985
0.0387637
0.0355177
-0.00915632
0.00448437
-0.00739439
-0.00285595
0.00916305
0.000619193
0.0629521
0.0265788
-0.0143065
-0.00710104
0.00215537
0.0131171
-0.0136842
-0.031217
0.00731389
0.0145276
0.0213072
0.051037
-0.000642029
0.00398412
0.00568469
-0.00509617
0.0319786
-0.0176712
-0.0436657
-0.158328
-0.060529
0.00754857
-0.00220927
-0.004601
-0.0231684
-0.0602885
-0.0162131
0.00115475
-0.0133676
0.0504062
0.0090165
-0.00218002
0.0191455
-0.0187556
0.0698926
0.0566192
-0.188337
0.0381988
-0.0322091
-0.0506013
-0.0738787
-0.0793798
-0.0570916
-0.0954923
-0.0414538
0.0186458
-0.0297057
0.0483614
0.0277144
-0.000966977
0.0548759
-0.0378447
0.0735779
0.24559
-0.202911
-0.0443887
-0.0292688
0.00432813
0.129512
0.00335743
0.0141283
0.00430437
-0.100969
-0.0320523
-0.0163224
-0.0184395
-0.0724608
-0.0569079
-0.0258733
-0.17948
-0.0534792
-0.0442095
-0.133013
0.0511318
-0.0761158
-0.0838353
0.0425845
-0.0707003
0.0896955
0.0262114
-0.117386
0.090318
0.111708
0.0974197
0.0346641
0.124082
0.184039
-0.231116
0.0159837
0.244399
-0.284475
-0.118433
0.019981
0.00693352
-0.0810063
-0.0959108
0.23373
0.0626905
-0.189458
0.0198488
-0.0050339
-0.0590511
-0.050877
0.0759359
0.259669
-0.0832107
-0.194295
0.192929
0.0686587
0.0813343
0.132892
0.104512
0.0614617
-0.0137768
0.061331
-0.116239
-0.247798
-0.180747
-0.0691941
0.0674845
-0.0437294
-0.0063326
0.163337
-0.101496
-0.0851187
0.223057
0.203785
-0.0856462
-0.0926558
-0.070437
-0.0749141
-0.231567
-0.105179
0.0169492
0.0223196
-0.0100201
-0.0273494
0.0795729
-0.0116912
-0.0449814
0.0164354
-0.15085
0.116024
0.292117
0.16792
0.0184066
-0.0646656
0.0452239
-0.0131897
-0.0600433
0.020847
-0.00704876
0.0572253
0.0443022
0.0371342
0.154724
0.041137
-0.111161
0.00386536
-0.0375895
-0.0569
-0.114374
0.0184761
0.22417
0.0662738
0.0699941
-0.0345331
0.0495303
-0.00686867
-0.166335
0.0764705
0.0580798
0.0271821
0.151387
0.118913
-0.0287151
-0.0510844
0.0491169
0.110529
0.0865531
0.134393
0.14616
0.0360184
0.124439
0.0900233
0.231731
0.0808844
-0.109492
0.0197102
-0.0244045
0.12416
0.142472
-0.0517539
-0.0838386
0.00127653
0.0127295
-0.0306879
0.151645
0.246185
-0.170921
-0.143882
-0.000894634
-0.0858378
-0.011996
-0.0425107
0.0502368
0.0538667
-0.146979
-0.0398168
-0.051411
-0.030554
0.0794138
0.0279418
-0.0192413
-0.114394
0.0077294
-0.0116601
-0.00336977
0.191925
0.203575
0.105357
0.0562962
-0.0216352
0.00832321
-0.00729088
0.00626154
-0.00454698
-0.0763082
0.0239786
0.132105
0.0754373
0.00903874
-0.0748522
-0.0406807
-0.0443729
0.0635407
-0.0382375
-0.133006
-0.137779
-0.109806
-0.0249711
0.0531682
-0.0063917
-0.0107271
-0.0518803
-0.120393
-0.097772
-0.0460566
-8.72017e-05
-0.0218117
-0.0356846
0.107908
-0.088185
-0.020195
0.0309223
0.00735356
0.00649493
0.0531417
0.0874427
0.0478053
0.00966791
0.0824193
0.0989062
0.0681101