/*--------------------------------*- C++ -*----------------------------------*\
| =========                 |                                                 |
| \\      /  F ield         | OpenFOAM: The Open Source CFD Toolbox           |
|  \\    /   O peration     | Version:  3.0.1                                 |
|   \\  /    A nd           | Web:      www.OpenFOAM.org                      |
|    \\/     M anipulation  |                                                 |
\*---------------------------------------------------------------------------*/
FoamFile
{
    version     2.0;
    format      ascii;
    class       volScalarField;
    location    "0.1";
    object      Uz_mode_2;
}
// * * * * * * * * * * * * * * * * * * * * * * * * * * * * * * * * * * * * * //

dimensions      [0 0 0 0 0 0 0];

internalField   nonuniform List<scalar> 
244500
(
0.0429164
0.0171743
0.0157242
0.00993348
0.00385145
0.0033899
0.00178256
0.0012793
0.000156191
-0.0051324
-0.00858966
-0.0103518
-0.0140716
-0.0127693
-0.0166599
-0.0161434
-0.0189771
-0.0383759
0.0443399
0.0612664
0.0493967
0.0259713
0.00510229
0.00258238
0.000609144
0.0018861
0.00186853
-0.00788433
-0.0149241
-0.0187208
-0.0287076
-0.0271058
-0.0340537
-0.0245306
-0.0223816
-0.0423274
0.0785769
0.0752234
0.0637742
0.0403917
0.00783149
-0.000445139
-0.0026314
0.000307958
0.00608259
-0.0041272
-0.0142065
-0.0158572
-0.0312462
-0.0328918
-0.0495854
-0.0399185
-0.0176939
-0.0398228
-0.0298638
-0.0764168
-0.0299944
0.00814013
-0.00378373
-0.00919993
-0.0080361
-0.00445171
0.00940342
0.0024289
-0.0133475
-0.00992033
-0.0253756
-0.0261102
-0.0549611
-0.0658894
-0.0186126
-0.0363626
0.00184334
-0.0189048
-0.0357135
-0.010354
-0.0161732
-0.0183299
-0.00870414
-0.00558869
0.0123624
0.0110917
-0.0154425
-0.0100271
-0.0222736
-0.0131597
-0.0376641
-0.0877939
-0.027755
-0.0304276
0.0078037
-0.0386426
-0.0755715
-0.0428903
-0.0384649
-0.0417456
-0.0163766
-0.00638552
0.00905095
0.0154418
-0.0237297
-0.0204702
-0.0291422
-0.0115986
-0.00308229
-0.0877211
-0.0350707
-0.0255677
0.0214796
-0.0543634
-0.123477
-0.100084
-0.0573338
-0.0401431
0.00147966
0.00475923
-0.0139706
-0.0100013
-0.0548098
-0.0447014
-0.0373724
-0.0229546
0.0318554
-0.0685675
-0.0240857
-0.0102874
0.0901483
0.0258408
0.0160567
0.0195754
0.0141717
0.00457247
0.00232112
0.00028608
-0.000900802
-0.000507127
-0.00211819
0.000883058
0.00732939
0.0109038
0.0236889
0.0417027
0.0866267
0.0901588
0.00216119
-0.00336708
0.0109326
0.0341911
0.0351334
0.0133454
0.00250086
-0.00353699
-0.00324456
0.00119743
-0.00308995
0.000286954
0.00993486
0.00973843
0.0293878
0.0476928
0.115603
0.139352
0.0726297
0.0849031
0.0413559
0.0458267
0.0574422
0.0338073
0.0116575
-0.00508898
-0.00906972
0.00414732
0.00149989
0.00216885
0.0146822
0.00675828
0.0202355
0.0374609
0.0892943
0.142696
0.0280464
-0.0150795
-0.0402801
-0.00446746
0.0495768
0.0508505
0.0305424
0.00325485
-0.0165457
0.00348107
0.00965855
0.00789019
0.0254484
0.0143743
0.0108371
0.0270613
0.0546411
0.121053
-0.0813127
-0.0290958
-0.0298758
-0.00444108
0.0670971
0.0857984
0.066652
0.0316531
-0.0147327
0.00016265
0.0192706
0.0171819
0.0384669
0.0326046
0.0136781
0.0206619
0.0214364
0.0864227
-0.0469568
-0.0855609
-0.112434
-0.0966484
-0.0247704
0.00408705
0.00815352
0.0107517
-0.0307591
-0.0164108
0.0226182
0.0277313
0.0492967
0.0461923
0.0277865
0.0263597
-0.0128342
0.0340287
0.0921059
0.0489136
-0.0158207
-0.0851677
-0.0733002
-0.0681968
-0.0674717
-0.0335832
-0.0615848
-0.0474547
0.0121834
0.0339804
0.0586415
0.0368483
0.032018
0.0462787
-0.0454716
-0.0336913
-0.0695512
-0.0192132
-0.00888053
-0.00640164
-0.00525435
-0.00582986
-0.00174804
0.000231374
-0.000384857
0.00199323
-0.00162182
-0.00117637
0.00225691
0.00258499
0.00685075
0.0154311
0.0204914
0.0437148
-0.0057916
-0.0202749
-0.0159496
-0.0110551
-0.0104108
-0.0166712
-0.00948838
-0.00284442
-0.00150532
0.00570273
-0.00317196
-0.00397645
0.00145485
0.000379354
0.00623386
0.0184693
0.0216167
0.0602235
-0.100656
-0.038608
-0.0138569
-0.0159511
-0.0173527
-0.0298782
-0.0243536
-0.01192
-0.00819211
0.00869669
-5.56038e-06
-0.00631592
0.00117791
-0.00267596
0.00272073
0.0155855
0.0128427
0.0461516
-0.00464029
-0.0340644
-0.0616972
-0.0748304
-0.0585475
-0.0596409
-0.0505546
-0.027947
-0.0222526
0.00641908
0.00612626
-0.0071721
0.00219368
-0.0045011
-0.00041567
0.0145414
0.00394124
0.0312267
0.0998287
0.0839203
0.0299517
-0.0195914
-0.0283953
-0.0509943
-0.0606148
-0.0358323
-0.0329984
0.00209428
0.0136187
-0.00527346
0.00447892
-0.0051956
-0.0016207
0.0175928
-0.00159081
0.0161121
-0.0831604
-0.0332486
0.0373587
0.0184007
0.00412982
-0.0265284
-0.0439961
-0.0100893
-0.0114852
0.0202419
0.0314216
0.00143688
0.00962674
-0.00823541
-0.000331562
0.0265405
-0.00219197
0.00728917
-0.0734162
-0.122023
-0.0842453
-0.0839112
-0.0599233
-0.0610564
-0.0604042
0.00150516
0.00198152
0.0369743
0.0374548
-0.0139844
0.00205129
-0.0270165
-0.00614569
0.0416947
-0.00455894
0.00741484
0.0129739
-0.00750721
-0.0171715
-0.0135933
-0.0101818
-0.00855791
-0.000155879
0.00093611
0.00147684
0.00417861
0.00343689
0.00598218
0.00943457
0.00838444
0.0100955
0.00794983
-0.00275775
-0.0149045
0.0309096
-0.0329796
-0.0366208
-0.0236662
-0.015665
-0.0164565
-0.000910266
0.000271737
0.000623654
0.00640097
0.00452071
0.0102795
0.0194276
0.0180788
0.0243316
0.0228048
0.00356198
0.00247318
0.0263296
-0.0298779
-0.0394962
-0.0287066
-0.0162347
-0.0230047
-0.00562607
-0.00155949
-0.00432399
0.00565962
0.00159639
0.00480644
0.020902
0.0194794
0.0315597
0.0385634
0.0103364
0.010048
0.0793366
0.00678925
-0.023477
-0.0301385
-0.0157285
-0.0296127
-0.0171802
-0.0072832
-0.0140456
0.0028019
0.00106386
-0.00588621
0.0165224
0.012235
0.0265824
0.054943
0.0212707
0.0120402
-0.121975
-0.0475933
-0.0336583
-0.0597027
-0.0406242
-0.0521761
-0.0474621
-0.0263888
-0.0310026
-0.0044057
0.00898917
-0.0130305
0.0130798
0.0046521
0.00568698
0.0619646
0.0367783
0.0169483
-0.0477611
-0.0767834
-0.106524
-0.13477
-0.0754955
-0.0555689
-0.0602373
-0.0328699
-0.0315964
-0.0018915
0.0372369
-0.00251058
0.0204216
0.0128334
-0.017815
0.0549843
0.045385
0.0383415
-0.00688244
-0.0598143
-0.0285574
-0.0198636
0.00968003
-0.0140154
-0.077821
-0.0545275
-0.0198847
0.0233057
0.103989
0.0468443
0.0548084
0.0501377
-0.021782
0.0515768
0.0415367
0.0612534
-0.0729557
-0.0293718
-0.0160938
-0.00981697
-0.00877274
-0.00888437
-0.00612988
-0.00608945
-0.00661347
-0.00332159
0.00159002
0.00546835
0.00951065
0.0134682
0.0194438
0.0163208
0.0364431
0.00279767
-0.0938783
-0.0167816
-0.0115117
-0.0112631
-0.010063
-0.0101613
-0.00602213
-0.00965603
-0.0163334
-0.0122406
-0.00263891
0.00574702
0.0167182
0.0241803
0.0364656
0.0258578
0.0585203
0.0391573
-0.072969
-0.00651697
-0.0141295
-0.0169959
-0.00992852
-0.00777522
-0.00119592
-0.00421219
-0.0204768
-0.0230486
-0.0126404
-0.00441703
0.0113128
0.0247185
0.0420532
0.0313608
0.0563278
0.0658153
-0.144564
-0.0428896
-0.0346792
-0.0182866
0.00380441
0.00675264
0.00897769
0.00816517
-0.0163483
-0.0324378
-0.0229997
-0.0189643
-0.00472746
0.0165802
0.0404074
0.0322891
0.0498812
0.0737399
-0.149218
-0.118809
-0.0656311
-0.00843475
0.0309159
0.033396
0.021004
0.0170579
-0.00887748
-0.0427807
-0.0331566
-0.0320185
-0.0264035
-0.000634833
0.0333163
0.0284945
0.0392769
0.0682816
-0.0469018
-0.0349095
-0.00560121
0.0172737
0.0240426
0.0147893
-0.0114238
-0.0182179
-0.0240298
-0.0696353
-0.0533266
-0.0445175
-0.0496316
-0.024588
0.0187809
0.0229308
0.0277608
0.0485874
-0.130055
-0.0481322
0.0203013
0.0229622
-0.0161458
-0.0195491
-0.0344679
-0.0506389
-0.024621
-0.0809124
-0.0581718
-0.0322606
-0.0526266
-0.0374991
8.42897e-06
0.0139413
0.0241915
0.0170908
-0.132923
-0.0612543
-0.021858
-0.00786212
-0.00475749
-0.00448383
-0.00763299
-0.00593464
-0.0020555
0.00190294
0.00589879
0.00498142
0.00599593
0.00321183
0.0093508
0.00454932
0.0254405
0.00325664
-0.145611
-0.084685
-0.0307202
-0.00709706
-0.0035682
-0.00492059
-0.0147659
-0.0164085
-0.0101435
-0.000570573
0.0107752
0.0117727
0.0152368
0.0074691
0.0182546
0.00186062
0.0356533
0.0297896
-0.0992841
-0.111788
-0.0433259
-0.00283068
0.00137295
-0.00060508
-0.0134868
-0.0228254
-0.022608
-0.0131592
0.00530648
0.0127219
0.02286
0.0138519
0.026631
0.00430978
0.0244663
0.0506059
0.0515271
0.053724
0.0664541
0.0569641
0.0260169
0.00991499
-0.00408702
-0.0174033
-0.0291785
-0.0294778
-0.00997726
0.00427605
0.0255263
0.0206589
0.0375597
0.0144427
0.0110987
0.0581194
-0.0192395
-0.0383996
0.0255987
0.0519164
0.0262703
0.0116252
0.0057479
0.000223034
-0.0219538
-0.0398781
-0.0284235
-0.0135295
0.0216222
0.0235843
0.0487468
0.0323254
0.00116211
0.0590664
0.0809247
0.0484369
0.0304866
-0.00760957
-0.0499559
-0.042812
-0.0222052
-0.00411824
-0.0261035
-0.0563363
-0.0493484
-0.0390804
0.012512
0.0235771
0.05603
0.0558191
-0.00432808
0.0564484
-0.0252579
0.0732017
0.0790634
0.00975473
-0.0395925
-0.0230086
-0.0211983
-0.01253
-0.0428846
-0.0811316
-0.067208
-0.0680835
-0.00417829
0.0213955
0.0579871
0.0813815
-0.00538279
0.0459473
-0.0921456
-0.00769573
0.00799224
0.0117327
0.0106511
0.0103802
0.0042936
0.000196849
0.00304577
0.00956985
0.0150312
0.0156431
0.0161332
0.0113345
0.00673984
0.00461533
-0.00341966
-0.00554227
0.103208
0.0192121
0.0168357
0.0298806
0.0299005
0.0307624
0.0181354
0.0027909
0.00270278
0.0145716
0.0281994
0.0338693
0.0372313
0.027789
0.0177254
0.0107897
-0.005
-0.00748995
-0.0397632
-0.0468142
-0.00284944
0.033884
0.0373589
0.0411315
0.0333772
0.00971321
-0.00247284
0.00499303
0.0211891
0.0351651
0.0491902
0.0435563
0.0331054
0.0227922
-0.00353804
-0.0130148
-0.00490429
0.023788
0.0347977
0.0415765
0.0302934
0.0317601
0.0374448
0.0188811
-0.00466346
-0.00645611
0.00155448
0.0166408
0.0466322
0.0504946
0.0497111
0.0441467
0.00656043
-0.0221893
-0.0432062
-0.0156766
0.0537981
0.096627
0.0823427
0.0568178
0.0497314
0.0342979
0.000174526
-0.00706067
-0.0119938
-0.0142039
0.0305251
0.0416093
0.0546341
0.0698866
0.0278325
-0.0217144
0.177867
0.155729
0.109224
0.072049
0.0411226
0.00873608
0.00137028
0.01528
-0.0092305
-0.000423147
-0.000531236
-0.0379739
0.0145736
0.0278595
0.0427519
0.0891389
0.0533094
-0.00751686
0.0322976
-0.0312859
0.0174809
0.0370425
0.0167092
-0.0380333
-0.065847
-0.00660071
-0.0132162
0.0140547
0.0369452
-0.0459767
0.00614491
0.0224815
0.0264098
0.0949913
0.0678768
0.01125
0.0201507
-0.00483832
0.00528969
0.00758777
0.000320345
-0.00447337
-0.0060175
-0.00395219
0.00322074
0.00247793
0.00242438
0.000560486
-0.00645348
-0.00792493
-0.0142831
-0.0232189
-0.0564645
-0.0546676
0.0663972
-0.0188419
0.00330529
0.0160432
0.00575607
-0.00504156
-0.0115019
-0.0119647
0.00125865
0.00156645
0.00538846
0.00454484
-0.00863277
-0.00701749
-0.015289
-0.0226775
-0.0733359
-0.0881309
0.0745779
0.0171554
0.0103323
0.0198254
0.0113351
-0.00118957
-0.00966389
-0.0174791
-0.00457231
-0.00604033
0.000239893
0.00920361
-0.00756782
-0.00515189
-0.0072974
-0.0115477
-0.0577811
-0.0878645
-0.0689119
-0.0327389
0.0142262
0.0368879
0.0284683
0.0116792
0.0034487
-0.0114137
-0.00283434
-0.0122092
-0.0151442
0.00586668
-0.00691491
-0.00877723
0.000416654
0.00257869
-0.0394785
-0.0733406
0.0203579
0.0752624
0.0725878
0.0720127
0.0667744
0.0495384
0.0390465
0.0156351
0.0164871
-0.0031136
-0.0298273
-0.011085
-0.012299
-0.0197703
-0.00161712
0.0160312
-0.0269933
-0.0585874
0.140932
0.162727
0.13101
0.107911
0.0900801
0.0604221
0.0453271
0.0300402
0.037891
0.0203236
-0.0271088
-0.0331612
-0.0282355
-0.0371458
-0.0177346
0.0226772
-0.0233401
-0.0644066
0.0447093
0.038462
0.0596799
0.0735543
0.0659685
0.0446552
0.040193
0.056892
0.0774726
0.0529018
-0.00487777
-0.0467126
-0.0541921
-0.060087
-0.0420719
0.0172102
-0.0314135
-0.0861724
0.012186
0.0270198
0.0231348
0.0175611
0.0116803
0.00765538
0.00505265
0.00562892
0.00701325
0.00321252
0.000880039
0.00262516
-0.00043086
0.0020577
0.00450337
0.00320944
-0.0016087
0.0209072
0.0342231
0.0288436
0.034538
0.0320538
0.0222774
0.013301
0.00510035
0.00742683
0.0134346
0.00605627
0.000779569
0.00372157
-0.00512172
0.00185028
0.00797784
0.00407687
-0.00135859
0.0227829
-0.059185
0.000637521
0.0179253
0.0202451
0.016959
0.0141681
0.00328036
0.00272712
0.0172457
0.0112203
0.00124873
0.00731958
-0.00861327
-0.00637644
0.0121855
3.15644e-05
0.00204625
0.00444454
-0.0403282
-0.0710602
-0.0813575
-0.0609814
-0.031078
-0.00222865
-0.000371433
-0.00708341
0.0161171
0.0184959
0.00147772
0.0126648
-0.00564802
-0.0215725
0.0133767
-0.00242375
0.00640465
-0.0075462
0.0686788
0.0480795
0.00569178
-0.00383554
0.00352158
0.0223619
0.0194824
-0.0101915
0.00881404
0.0251937
0.00028509
0.0131988
0.00286016
-0.0367279
0.00388744
-0.00718317
0.00923875
0.00859915
-0.0139448
-0.0203908
-0.0227488
-0.00239453
0.0100656
0.0314063
0.0414443
-0.00507358
-0.00253854
0.0281323
-0.00248115
0.0012512
0.00421371
-0.0492011
-0.0123784
-0.0250133
-0.00385757
0.0437547
0.104888
0.110187
0.0447917
0.0466544
0.0351015
0.0269515
0.0266701
-0.0394131
-0.0546241
-0.00576342
-0.0248791
-0.0390882
-0.0270386
-0.0696188
-0.0291441
-0.0462462
-0.0413869
0.0674256
-0.021268
0.00855685
0.00889009
0.0123906
0.0139305
0.0143166
0.0113263
0.00749244
0.0073656
0.00628337
0.00889148
0.0120618
0.0128158
0.0205863
0.023442
0.0305431
0.0563848
0.0605008
0.0854296
0.0202255
-0.00396711
0.012674
0.0263272
0.0301614
0.0232574
0.01587
0.0162309
0.0126803
0.0159424
0.0198898
0.0178096
0.0320398
0.0351897
0.0400674
0.0846336
0.0942663
-0.0171107
-0.0459852
-0.0539656
-0.00557495
0.0299843
0.0420729
0.0336789
0.0210835
0.0236943
0.0198759
0.0212432
0.0270985
0.016033
0.0310108
0.0368703
0.0322033
0.0815747
0.102683
-0.11011
-0.0662096
-0.039395
0.0118938
0.0418539
0.0519538
0.043905
0.0248886
0.0289329
0.0292861
0.0275929
0.0406811
0.0206915
0.0271362
0.0360985
0.0171811
0.0701092
0.105088
0.0269179
0.0598458
0.0376717
0.038283
0.0402809
0.0463523
0.0508302
0.0343363
0.0360508
0.0417361
0.0344794
0.0563638
0.0385793
0.0324149
0.0408541
-0.0033173
0.0518738
0.114163
0.0442769
0.0616107
-0.0198138
-0.0387329
-0.0153472
0.0223163
0.0616119
0.0603691
0.0487839
0.0506546
0.037859
0.0639914
0.0594649
0.0522457
0.0654514
-0.0224177
0.0121596
0.139925
-0.0433205
0.0141826
0.0629333
0.0783639
0.0617525
0.0462951
0.0527673
0.040186
0.00278495
0.00200555
0.0113421
0.0542295
0.0615194
0.0641064
0.11044
-0.0186784
-0.0677114
0.153217
0.042673
0.019081
0.0156342
0.0103665
0.00703988
0.00328978
0.00650065
0.00475618
0.00436278
0.0019718
-0.000498292
-0.000324645
0.000733404
0.00582202
0.0108726
0.019087
0.0388629
0.0145211
0.0430818
0.0654575
0.0496528
0.0251979
0.0115631
0.00121441
0.0086712
0.00747828
0.00846227
0.00409503
-0.00165064
-0.00363454
-0.00450787
0.00108776
0.0111735
0.0268766
0.0653431
0.0592083
0.0756984
0.0810386
0.0661998
0.0365668
0.0163199
-0.00325939
0.00529292
0.00731701
0.0109759
0.00902964
0.00039752
-0.00201755
-0.00671899
-0.00721003
-0.00283939
0.00996998
0.0609504
0.0718557
-0.0351991
-0.0702588
-0.022674
0.000644014
0.00592649
-0.0127887
-0.00234643
0.00507903
0.0105999
0.0151026
0.00226108
0.00115639
-0.00183033
-0.00809784
-0.0116749
-0.0191396
0.0379605
0.0711727
-0.00573472
-0.0133779
-0.0206881
-0.0216671
-0.00694732
-0.0214856
-0.00706618
0.00822805
0.00964604
0.0214284
0.00273715
-0.00328911
0.00395131
-0.00391115
-0.00300399
-0.0340469
-0.00191498
0.0741788
0.000270276
-0.0403228
-0.0537026
-0.0537395
-0.0297084
-0.0417123
-0.0216904
0.0123665
0.00418369
0.020011
0.000817188
-0.020727
0.00216493
-0.00439694
0.0133748
-0.0168541
-0.0344591
0.0661029
0.0126762
-0.0638586
-0.0872019
-0.110973
-0.0603525
-0.0344982
-0.00965768
0.0295415
-0.0181848
-0.0173725
-0.0212749
-0.0508763
-0.00343035
-0.0106825
0.031693
0.0148855
-0.0361054
0.0576351
0.089738
0.0268127
0.0171844
0.0196689
0.0158421
0.0048084
0.00440419
0.00285914
0.000461539
0.00350604
0.00225025
0.00484106
0.0112258
0.0139063
0.0221059
0.0346918
0.0486659
0.0576413
0.000878423
-0.0020012
0.0134021
0.0340664
0.038204
0.0132714
0.00596476
0.000908753
-0.00175121
0.00821301
0.00526056
0.00721179
0.017725
0.01878
0.0312043
0.0508264
0.0694726
0.0961612
0.0703981
0.0859037
0.045268
0.0454109
0.0614664
0.0332648
0.0143944
0.00119025
-0.00927726
0.00994894
0.012555
0.00944084
0.022099
0.0186915
0.0242822
0.0480525
0.0571496
0.0899461
0.0248987
-0.0155129
-0.0346045
-0.00518471
0.0546735
0.0507047
0.0308084
0.0118135
-0.0171048
0.00395322
0.0226886
0.0165113
0.0299037
0.0258839
0.0164485
0.0414323
0.0382906
0.059549
-0.0846853
-0.0315407
-0.0220671
-0.00531016
0.0727178
0.0878575
0.0639425
0.0405275
-0.0110066
-0.00697095
0.0302654
0.0304406
0.0402635
0.0414313
0.0171859
0.0378725
0.0247571
0.0242412
-0.0485599
-0.092415
-0.105283
-0.0950706
-0.0206809
0.00977057
0.00580054
0.014466
-0.0183618
-0.0278809
0.0243287
0.0466585
0.0508673
0.0556713
0.0244783
0.0349658
0.0187955
-0.00277719
0.0891845
0.044545
-0.0061124
-0.0836824
-0.0767591
-0.0600253
-0.0622891
-0.0410065
-0.040655
-0.0546328
0.00163382
0.055124
0.0562374
0.0577068
0.0305432
0.0187152
0.0077577
-0.00918119
-0.069144
-0.0197102
-0.00779859
-0.00625706
-0.00564775
-0.00415824
-0.00238342
0.00148616
0.00039188
0.00232889
0.000856405
-0.00177944
0.00319957
0.00207833
0.00542204
0.0103265
0.0129078
0.0124952
-0.00489687
-0.0219818
-0.0142273
-0.0102217
-0.0118887
-0.0134028
-0.0107925
-0.000772486
-6.36527e-05
0.00601716
0.00255868
-0.00549564
0.00462437
0.00119806
0.00574138
0.0153097
0.0154427
0.0275427
-0.0989124
-0.0415064
-0.0127716
-0.0134703
-0.0201004
-0.0258429
-0.0257905
-0.010276
-0.00592516
0.00689074
0.00866823
-0.00822094
0.00316527
0.00155655
2.98817e-05
0.0155402
0.0110789
0.0162573
-0.00150387
-0.0378462
-0.062809
-0.0703516
-0.0621373
-0.0553395
-0.0515827
-0.0275626
-0.0181712
0.000766897
0.016507
-0.00634917
-0.00117903
0.00474031
-0.00487806
0.0120189
0.01177
0.000277345
0.10385
0.0795269
0.0260988
-0.0127509
-0.031698
-0.0467192
-0.0606066
-0.0375676
-0.0258326
-0.00730413
0.0217156
0.00288457
-0.00587229
0.00624115
-0.00229777
0.00702573
0.0160259
-0.00593934
-0.0788184
-0.0316706
0.0283239
0.0214186
0.00153803
-0.0211116
-0.0403637
-0.0144211
-0.00164007
0.00973964
0.031779
0.0188731
-0.0044069
-0.000119065
0.00577137
0.00909139
0.0216009
0.00101635
-0.0715998
-0.118485
-0.0966499
-0.0793196
-0.0577666
-0.062427
-0.0540554
-0.00342536
0.013457
0.0295622
0.0265076
0.0099122
-0.011525
-0.0238798
0.00246292
0.0199657
0.0306023
0.0117315
0.0133286
-0.00941868
-0.0161662
-0.0150307
-0.0115981
-0.00606585
-0.00365362
0.00142152
0.00139305
0.0014809
0.00179722
0.0036242
0.00628505
0.0040748
0.00504168
-0.000193112
-0.00775313
-0.0155497
0.0322528
-0.0371731
-0.0342221
-0.0255359
-0.0195894
-0.0102025
-0.00801374
0.00163866
0.00187201
0.00124652
0.00206734
0.00713692
0.0152516
0.0114287
0.0170895
0.0105789
-0.00477684
-0.0142036
0.029317
-0.0364318
-0.0368024
-0.0283996
-0.0245054
-0.0127677
-0.0138285
-0.00281127
0.00127508
-0.000509861
-0.00201149
0.00188161
0.017648
0.0133173
0.0229774
0.0274733
0.00829978
-0.0177687
0.0848203
-0.00255419
-0.0223632
-0.0248824
-0.0300253
-0.0164255
-0.0225434
-0.0153705
-0.00353012
-0.0013816
-0.00458303
-0.0090437
0.0134166
0.0111318
0.0147792
0.0374537
0.0411041
-0.0163434
-0.112863
-0.0595496
-0.0377805
-0.0468145
-0.0609921
-0.039705
-0.0447784
-0.0433685
-0.0193275
-0.00241146
0.00146614
-0.0157691
0.00453875
0.0135053
-5.82445e-05
0.0144175
0.0813045
0.0290379
-0.0365821
-0.0882411
-0.117667
-0.11273
-0.0984229
-0.0507152
-0.0457259
-0.0562354
-0.0260358
0.0102118
0.0276424
0.000168091
-0.000830784
0.0250136
0.00950129
-0.0397305
0.0834213
0.129498
0.00654567
-0.0661067
-0.0531482
0.00649562
-0.00466436
-0.0218413
-0.0502912
-0.0790203
-0.0308163
0.0511648
0.0890307
0.0603246
0.0233627
0.0449341
0.0598129
-0.0772928
0.0390989
0.221088
-0.0733112
-0.0306548
-0.0149319
-0.0112387
-0.0105197
-0.00789674
-0.00935621
-0.00845382
-0.00789788
-0.00778009
-0.00340981
0.000925216
0.0012702
0.00466669
0.00487959
0.00540588
0.00480722
0.0072104
-0.094088
-0.0198344
-0.00856569
-0.0127308
-0.0143666
-0.00700915
-0.0117687
-0.0141133
-0.0173089
-0.0201415
-0.0113864
-0.000326342
0.0028327
0.0105169
0.0124537
0.0119689
0.00699321
0.00971744
-0.0724957
-0.0119102
-0.0105431
-0.015771
-0.0173273
-0.00272046
-0.00572254
-0.011982
-0.0189679
-0.0304466
-0.024634
-0.00905521
-0.00171926
0.00958197
0.0166745
0.0214833
0.00992435
0.0128032
-0.14261
-0.0512734
-0.0324478
-0.0120298
-0.00647708
0.0115631
0.0093083
-0.00400368
-0.0136261
-0.0351896
-0.0382261
-0.0244318
-0.0124208
0.0017605
0.0120073
0.0294182
0.0175145
0.0109127
-0.144667
-0.129195
-0.068113
0.00356042
0.0199167
0.0340927
0.0283718
0.00253914
-0.00948641
-0.038515
-0.0479358
-0.0429871
-0.0293891
-0.0089678
-0.00170289
0.0259159
0.0257197
0.00837427
-0.0390868
-0.0468507
-0.015116
0.0349441
0.0179025
0.00769211
0.000576006
-0.0299988
-0.0322175
-0.0602988
-0.0621056
-0.0617141
-0.0543042
-0.023124
-0.0150146
0.00889366
0.0186971
0.013845
-0.119358
-0.0549337
0.000511777
0.0348347
-0.0106069
-0.0322418
-0.0233049
-0.0548902
-0.0425439
-0.0691026
-0.0598706
-0.0526915
-0.0594843
-0.0372593
-0.0173723
-0.00402008
-0.0202973
0.0145989
-0.133286
-0.0609789
-0.0226377
-0.00912943
-0.00594664
-0.00646731
-0.0102715
-0.00941088
-0.00587504
-0.00418919
-0.00026474
-0.00342009
-0.00577948
-0.0063992
-0.0119126
-0.00867095
-0.00730961
0.0196806
-0.14644
-0.0840276
-0.031827
-0.00923213
-0.00552634
-0.0076241
-0.0191235
-0.0219378
-0.0160144
-0.0106385
0.000797185
-0.00157056
-0.00503219
-0.00635063
-0.0204928
-0.0161004
-0.0168265
-0.00151966
-0.100684
-0.110812
-0.0441123
-0.00507509
-0.00100699
-0.0029119
-0.0175371
-0.0290299
-0.0277143
-0.0237137
-0.00512518
0.00012541
-7.9589e-05
0.00321352
-0.0157467
-0.0191494
-0.0109748
-0.00977943
0.0493877
0.0548249
0.0661717
0.0552544
0.0232928
0.00754063
-0.00656267
-0.0242062
-0.0331031
-0.0389169
-0.01983
-0.00618528
0.00213043
0.0143132
-3.50081e-05
-0.0189934
-0.00498025
0.00716318
-0.0218674
-0.0371965
0.0250873
0.0509329
0.0236578
0.00800183
0.00541263
-0.00655507
-0.0258103
-0.0480416
-0.0364695
-0.0226276
-0.00153587
0.0202177
0.0196068
-0.00868763
-0.00970479
0.024649
0.0780654
0.0497986
0.0294095
-0.00680503
-0.0509901
-0.0493775
-0.0225894
-0.00945265
-0.0305948
-0.0656625
-0.0533635
-0.0477606
-0.0113539
0.0233462
0.0319624
0.0140139
-0.0103837
0.0121086
-0.0271713
0.074473
0.0753087
0.00987733
-0.0393279
-0.0293633
-0.021295
-0.0134376
-0.0477021
-0.0985051
-0.0663774
-0.0752175
-0.0326861
0.0298085
0.0339447
0.0304995
0.0165681
-0.00756381
-0.0930103
-0.00692314
0.00621253
0.00963405
0.010002
0.00612025
0.00117567
-0.00371421
-0.00333945
0.0030659
0.00595748
0.00507745
0.00198651
-0.00309644
-0.0132234
-0.0146341
-0.030102
0.0165524
0.101182
0.0217232
0.0145045
0.0255359
0.0298525
0.0237134
0.012828
-0.00273798
-0.00840997
0.0047166
0.0128959
0.0167779
0.0127488
0.00446895
-0.0189855
-0.0218732
-0.0532072
-0.0252415
-0.0435234
-0.0428336
-0.00338075
0.0274242
0.0383023
0.0341017
0.0263166
0.00586792
-0.0150997
-0.00479059
0.00610455
0.0176461
0.023102
0.0205466
-0.00534696
-0.0171754
-0.0458831
-0.0473252
-0.011048
0.0286144
0.0379991
0.0332923
0.0316124
0.0263881
0.0277685
0.0175976
-0.0168134
-0.0171331
-0.0101294
0.000872467
0.0210416
0.0314033
0.01699
-0.00117842
-0.0311163
-0.0408641
-0.0517702
-0.0111779
0.0618278
0.08708
0.0826417
0.054521
0.0367542
0.0340069
-0.00826241
-0.0214887
-0.0206042
-0.0245832
0.00237434
0.0275081
0.0317802
0.0223492
-0.0132354
-0.0266306
0.167569
0.155981
0.123839
0.0656787
0.0384575
0.0104391
-0.014467
0.0112194
-0.00935979
-0.0197555
-0.0124206
-0.0355176
-0.0198883
0.014058
0.0346277
0.0417887
0.0075557
-0.0113971
0.0245249
-0.0358629
0.0319242
0.0358009
0.00691869
-0.0312346
-0.0773615
-0.0200329
-0.00143817
-0.0075504
0.00826838
-0.0232125
-0.0319351
-0.00196816
0.0355121
0.0516708
0.0202484
0.00343634
0.0196766
-0.00431485
0.00376184
0.0050957
3.88829e-05
-0.0097805
-0.00956835
-0.00694875
-0.00557804
-0.00344096
-0.00840125
-0.0137417
-0.0228906
-0.0277241
-0.0397754
-0.0491158
-0.090323
-0.0502135
0.0650744
-0.0169279
0.00140744
0.0108383
0.00668427
-0.0144013
-0.0178078
-0.0151821
-0.0146945
-0.00598457
-0.0127773
-0.0191253
-0.0358892
-0.0399738
-0.0608591
-0.0667341
-0.135542
-0.125425
0.0718378
0.0203492
0.010449
0.0119206
0.014206
-0.0108187
-0.0195821
-0.0165464
-0.0242973
-0.0123808
-0.0152748
-0.0175461
-0.0344602
-0.0382645
-0.0563817
-0.0602165
-0.120135
-0.143121
-0.0734481
-0.0291697
0.0185095
0.026205
0.0326005
0.00483764
-0.0125133
-0.00470967
-0.023938
-0.0205263
-0.0217938
-0.0221966
-0.0310833
-0.0357121
-0.0460657
-0.0454536
-0.0955886
-0.132001
0.0135514
0.0768132
0.0838413
0.0599823
0.0699929
0.0482192
0.015293
0.0259877
-0.00133418
-0.0190329
-0.0267493
-0.0365831
-0.0372097
-0.037619
-0.0429599
-0.0315466
-0.0701923
-0.12282
0.133605
0.161377
0.146258
0.0958963
0.0901591
0.0671854
0.0161109
0.0377667
0.0281428
-0.0050026
-0.0208322
-0.0507107
-0.0561542
-0.0489649
-0.0497239
-0.0305516
-0.0504305
-0.115691
0.0384623
0.0254193
0.080709
0.0761382
0.0593088
0.0525712
0.0122663
0.0550891
0.0764564
0.0255051
-0.00571972
-0.0583193
-0.0797874
-0.0724909
-0.0639748
-0.0409657
-0.0525795
-0.11388
0.0119501
0.0258005
0.0230742
0.0141232
0.00965737
0.00524293
-0.000664596
0.00132786
-0.000700004
-0.00603627
-0.0107765
-0.0136592
-0.0222282
-0.0239107
-0.0327956
-0.0400678
-0.0730511
-0.0184719
0.0339731
0.026471
0.0357303
0.0261297
0.0186961
0.0103927
-0.0048694
0.00089924
0.000694668
-0.00825708
-0.0181172
-0.0222545
-0.0413565
-0.0376296
-0.0534122
-0.0617529
-0.115721
-0.0777582
-0.0591966
-0.00335675
0.021063
0.0142994
0.0114878
0.0132689
-0.00798254
-0.00354406
0.00399007
-0.00315583
-0.0170163
-0.017869
-0.0481596
-0.0442516
-0.0495764
-0.065445
-0.111183
-0.111389
-0.0395919
-0.0780677
-0.0763694
-0.065018
-0.0393277
-0.000724288
-0.0116806
-0.0124974
0.00354793
0.0048816
-0.0140843
-0.0068597
-0.0452388
-0.0558316
-0.0410989
-0.0560432
-0.100689
-0.124084
0.0714271
0.0354928
0.0116452
-0.00386776
-0.00771057
0.0253228
0.00861849
-0.0144803
-0.0033965
0.0123253
-0.0145652
0.00180153
-0.0342312
-0.069707
-0.0473329
-0.0402711
-0.0849307
-0.122582
-0.00867349
-0.0356584
-0.0179218
0.00134364
-0.00325899
0.034198
0.031413
-0.00700076
-0.0167103
0.0173731
-0.0204152
-0.00371422
-0.0254168
-0.0820447
-0.0695896
-0.0423152
-0.0631654
-0.108108
0.117016
0.0886755
0.0398551
0.055125
0.0272491
0.0273508
0.0126905
-0.0360938
-0.0741582
-0.0111674
-0.0468813
-0.0463722
-0.0411463
-0.102837
-0.0944327
-0.0723858
-0.041859
-0.097821
-0.0215821
0.00606449
0.0109058
0.00913582
0.0110274
0.0148956
0.00454214
0.00361353
0.000649735
-0.00263143
-0.00286438
-0.0027872
-0.00881709
-0.0085662
-0.0245639
-0.0310665
-0.0622092
-0.0274339
0.085674
0.0142487
0.00103576
0.00842006
0.019838
0.0335759
0.0111726
0.00990284
0.00576225
-0.00181627
-0.00309749
-0.00210003
-0.0161868
-0.00949888
-0.0396934
-0.0416854
-0.0892434
-0.0888484
-0.0152835
-0.0562727
-0.0476719
-0.00651753
0.0189308
0.0496807
0.0210951
0.0133941
0.0150028
0.00465686
0.000759339
0.00638855
-0.0181115
-0.00607322
-0.0369172
-0.0456167
-0.0621653
-0.108634
-0.105248
-0.0821183
-0.0346933
0.0175719
0.0253366
0.0630552
0.0347393
0.013672
0.0238393
0.0161018
0.00631142
0.023188
-0.0105032
-0.00331355
-0.0250388
-0.0595147
-0.0299288
-0.0746795
0.0367843
0.0388049
0.0364909
0.0527708
0.0184734
0.0579845
0.0492461
0.0181584
0.0326369
0.0340278
0.0109301
0.0419198
0.0113314
0.0029563
-0.000756587
-0.0818483
-0.0302911
0.00755093
0.0607522
0.0383274
-0.0334964
-0.0152016
-0.0389466
0.0299116
0.0713118
0.0402888
0.0407722
0.052826
0.0105321
0.04919
0.0413821
0.0127957
0.0431952
-0.0875814
-0.0942802
0.0949843
-0.0206274
-0.00325753
0.030363
0.10582
0.0459542
0.0439793
0.0725728
0.021959
-0.0171414
0.0188242
-0.0174162
0.029304
0.0607605
0.00959492
0.0895396
-0.0467253
-0.199787
0.0932343
0.0449019
0.0186485
-0.0435771
-0.0785879
-0.0324431
-0.0393339
-0.0305216
-0.0198978
-0.0451156
-0.00993793
-0.0403503
-0.0224271
-0.0131954
-0.0493547
0.0449653
-0.0803217
-0.028431
0.0416943
0.0492529
-7.80695e-05
-0.0534687
-0.0741431
-0.0356527
-0.111621
-0.0323018
0.0208391
-0.0327438
0.0495806
0.0248673
0.0769586
-0.00214731
-0.108377
0.0797917
-0.126293
-0.140083
0.125569
0.0607206
0.0795247
-0.0216335
-0.0197726
0.0391952
-0.0885617
-0.0506863
-0.0211812
-0.0367914
0.0837193
0.0259254
0.029478
-0.0249677
-0.105916
0.0380725
0.0073218
-0.0924519
0.00214737
0.0961181
0.032756
-0.083594
-0.0280832
0.0149323
-0.0803687
-0.0198434
0.047087
0.119833
0.158269
0.0600579
0.0493394
-0.0427592
-0.0639668
0.0450461
0.0214183
0.0427809
0.0624706
0.0785914
-0.0144151
-0.0398017
0.0730427
0.151483
0.0972603
-0.0172196
0.00381577
0.168237
0.111147
-0.0635118
-0.0674486
-0.176772
-0.0765028
0.0417405
-0.0880721
-0.0108689
-0.0995376
-0.0821336
-0.0686575
-0.0624106
0.0107384
0.0379854
0.0794145
0.0424854
-0.0168811
0.0700551
0.0196877
-0.100972
-0.108722
-0.147159
0.00688044
0.0782264
0.00329149
0.110424
0.0451803
0.0312309
0.0284641
0.0392652
-0.0365482
-0.113929
-0.0211859
-0.0162628
-0.118019
0.00726427
0.0207226
-0.0504787
0.026747
0.0620193
0.171904
0.0142438
-0.16351
-0.001173
-0.0618922
0.0927882
0.1423
0.0997612
0.0310837
-0.0683693
-0.0237592
0.0177566
-0.0450682
0.0303232
-0.088025
-0.0352788
0.151127
0.0670888
0.0595289
-0.0369849
-0.10183
-0.0839782
-0.100703
-0.0565227
-0.0734003
-0.132738
-0.0903512
-0.124828
-0.0854015
-0.149447
-0.214927
0.0764759
0.113283
0.151852
0.0690852
-0.0137659
0.144605
0.0515514
0.0971243
0.013451
-0.129173
-0.0242701
0.023449
0.0289241
0.137326
0.0429282
-0.0171083
-0.0523879
-0.0213788
0.0442643
-0.0344687
0.0913055
0.0599118
0.0765002
0.0727361
-0.136215
0.0137516
-0.0329647
-0.059985
-0.145702
-0.082629
-0.0614322
-0.0824692
-0.0202832
0.000159246
-0.0298955
0.000124767
-0.0413639
-0.0543489
0.003802
0.0388197
0.0696604
-0.0125451
0.00712704
0.0878588
-0.0569651
-0.0879021
0.0276706
-0.0285886
-0.104059
-0.148814
-0.0677947
-0.084752
-0.102239
-0.0602016
-0.0502129
-0.0507051
-0.0601747
-0.0174465
-0.035198
-0.138167
0.0035862
0.108792
-0.0197966