/*--------------------------------*- C++ -*----------------------------------*\
| =========                 |                                                 |
| \\      /  F ield         | OpenFOAM: The Open Source CFD Toolbox           |
|  \\    /   O peration     | Version:  3.0.1                                 |
|   \\  /    A nd           | Web:      www.OpenFOAM.org                      |
|    \\/     M anipulation  |                                                 |
\*---------------------------------------------------------------------------*/
FoamFile
{
    version     2.0;
    format      ascii;
    class       volScalarField;
    location    "0.1";
    object      Uz_mode_0;
}
// * * * * * * * * * * * * * * * * * * * * * * * * * * * * * * * * * * * * * //

dimensions      [0 0 0 0 0 0 0];

internalField   nonuniform List<scalar> 
244500
(
-0.0106165
-0.00861672
0.00813607
0.00719252
0.00935999
0.00761988
0.00294739
0.00175019
-0.00387611
0.00288672
0.00827341
0.0126811
0.0135368
0.0126513
0.0137304
0.0158485
0.0254717
0.0590099
-0.0542035
-0.0114415
0.0266671
0.0245942
0.0264
0.0231017
0.014377
0.0125795
-0.00378418
0.00550184
0.014464
0.0238878
0.0268666
0.0239632
0.0249001
0.0206935
0.0277114
0.0677672
0.08423
0.0308622
0.0502323
0.0382973
0.037677
0.0374324
0.0247881
0.0292832
0.00453011
0.00614186
0.0136744
0.0237054
0.0320046
0.0293258
0.0347726
0.0309754
0.0128234
0.0622582
-0.0185854
-0.0746254
-0.0288563
-0.00728809
0.0207981
0.0432833
0.0264832
0.040201
0.016764
0.00896252
0.0120091
0.0166118
0.028805
0.0255721
0.035127
0.0556081
0.00210945
0.0194604
0.00314533
-0.0679439
-0.0711056
-0.0418779
0.000905188
0.0396253
0.00729329
0.0230621
0.0142188
0.00746441
0.010017
0.00776469
0.0225056
0.0153969
0.0126945
0.0800854
0.0337449
-0.0836434
0.0640068
-0.0697054
-0.0539945
-0.00986034
-0.0024679
0.0174563
-0.0380899
-0.0218389
-0.00235784
0.00714246
0.0141599
0.00479363
0.0260199
0.0175031
-0.0264238
0.0710933
0.130185
-0.154004
-0.0195674
-0.149459
-0.121244
-0.0621815
-0.0570835
0.0306709
0.0436421
0.0770118
0.101233
0.0966426
0.0733296
0.032025
0.058697
0.0580165
-0.0500568
0.0144284
0.240213
-0.0486012
-0.0136064
-0.0356513
-0.0191988
-0.00833114
0.000525282
0.00910667
0.0125068
0.0111652
0.00162518
-0.00864506
-0.00957871
-0.0133521
-0.0136081
-0.0107872
-0.020273
-0.0258085
-0.0483958
-0.0592189
-0.134419
-0.0916769
-0.0433313
-0.0161632
0.000249805
0.0166917
0.0273029
0.0307677
0.0114472
-0.0115845
-0.0163603
-0.0247718
-0.0242843
-0.0136724
-0.0301129
-0.0348032
-0.0778691
-0.0742471
-0.0324161
-0.0606584
-0.0339398
-0.00736937
0.00220441
0.0159465
0.0300666
0.0476041
0.0324583
-0.00248608
-0.0121606
-0.0278357
-0.0338159
-0.0130824
-0.0262421
-0.0253632
-0.0713631
-0.0768104
-0.0119455
-0.0307019
0.00980144
0.0207239
0.00431756
0.00865696
0.0220202
0.0553438
0.0584593
0.0140963
0.000206933
-0.0207263
-0.0416664
-0.0181793
-0.0221472
-0.0134981
-0.0482052
-0.0733523
0.100423
0.017723
0.0578812
0.0534168
0.00898651
0.00876657
0.0207573
0.0585435
0.0834331
0.032266
0.0116898
-0.00653502
-0.0395873
-0.0267705
-0.0254782
-0.00984174
-0.023113
-0.0580815
-0.0127529
-0.0305192
0.00719065
-0.0342977
-0.0882145
-0.0513251
-0.0100447
0.028282
0.0720412
0.0271546
0.00387707
-0.00494955
-0.0285204
-0.0309038
-0.0368051
-0.0178889
-0.0139434
-0.0323391
0.0676086
-0.0299021
-0.0627511
-0.0747909
-0.0771715
-0.0127052
0.0267389
0.0366253
0.073108
0.0420192
0.0178992
-0.0108255
-0.0160653
-0.0260794
-0.0590457
-0.0330236
-0.0245849
-0.0232328
-0.0194877
0.0112713
0.0171089
0.00951766
0.00360605
2.22368e-05
0.00359264
0.00454878
0.0026001
-0.00449998
-0.00963856
-0.0151193
-0.028122
-0.0311653
-0.0535682
-0.0682855
-0.121898
-0.0764999
-0.0612894
-0.0145898
0.012238
0.00955553
0.00112256
-0.00831288
-0.000777704
0.0063527
0.00703238
-0.00422417
-0.0114289
-0.0199956
-0.0464211
-0.0429284
-0.0863364
-0.0967687
-0.18009
-0.176249
-0.0294066
0.0159907
0.0253046
0.0181841
0.00844429
-0.0104015
-0.00930804
0.0020039
0.0110026
0.000320932
-0.00574988
-0.00754758
-0.0473345
-0.0369026
-0.0789238
-0.103466
-0.152614
-0.195519
-0.0230405
0.0166989
0.0537241
0.0493008
0.0333505
0.0027477
-0.0114779
-0.00613983
0.0121328
0.00467243
-0.00255938
0.0127767
-0.0358675
-0.0318585
-0.051443
-0.102703
-0.125346
-0.160535
0.0444571
0.0390905
0.0193839
-0.00238338
0.00947723
0.0102911
0.000305954
-0.00911902
0.0113552
0.0101419
-0.0069519
0.0285153
-0.0123961
-0.0306488
-0.0253944
-0.0881181
-0.110497
-0.131585
-0.0106964
0.0455513
0.055089
0.0354157
0.0331656
0.0102948
-0.0215806
-0.053621
-0.0287435
0.000336275
-0.0228771
0.0232633
0.0125108
-0.0293946
-0.0177534
-0.0754736
-0.0976674
-0.107025
0.0278868
0.00582441
0.0599453
0.0535533
0.0342496
0.0157395
0.0203927
0.0138647
0.0248251
0.0608377
0.00501978
0.00618509
0.0221447
-0.0311171
-0.0388071
-0.0882382
-0.106253
-0.075578
0.0964315
0.0464594
0.015142
0.0124525
0.00672774
-0.00458181
-0.00526344
-0.0102209
-0.00906986
-0.00622338
-0.0131895
-0.0156846
-0.0297742
-0.0379186
-0.0506613
-0.0681281
-0.114955
-0.0669363
-0.00708046
0.0301276
0.00599045
0.00748881
0.00711451
-0.0109758
-0.0110348
-0.0231634
-0.0228353
-0.013414
-0.0224945
-0.0223365
-0.0494256
-0.0590815
-0.0789581
-0.101338
-0.172717
-0.165651
0.0730237
0.0831241
0.0341048
0.00780174
0.00740755
-0.0132103
-0.00791461
-0.0225399
-0.0334564
-0.0209683
-0.0295321
-0.0192128
-0.0479885
-0.0649358
-0.0718673
-0.105131
-0.153673
-0.182602
0.0503406
0.0787899
0.0147255
-0.0196318
-0.00512967
-0.0211606
-0.0054528
-0.00963815
-0.034638
-0.0275484
-0.0415302
-0.0229309
-0.0370804
-0.0728119
-0.0541966
-0.0976573
-0.136208
-0.147752
0.102843
0.0582301
-0.0281831
-0.0690196
-0.0347982
-0.0405729
-0.0162682
0.0031513
-0.0260629
-0.0290177
-0.0535377
-0.0420915
-0.0273196
-0.0848885
-0.0440923
-0.076045
-0.139183
-0.121989
0.00399398
-0.0660495
-0.0735025
-0.0892101
-0.0351857
-0.0239827
-0.0100507
0.0200864
-0.00940054
-0.0277217
-0.0579453
-0.070762
-0.0257996
-0.0994335
-0.0501953
-0.0393903
-0.148683
-0.13742
0.0770615
0.0246459
0.00526036
-0.0602399
-0.0603243
-0.0461585
-0.0573065
-0.0270424
-0.0326311
-0.0556148
-0.0668502
-0.102577
-0.0332726
-0.118
-0.0781985
0.00756219
-0.13609
-0.195272
-0.0594478
-0.0099399
-0.000959063
0.0084466
0.00655903
0.00442509
0.000731809
-0.00675993
-0.00519367
-0.00858482
-0.0145849
-0.0148297
-0.0263479
-0.0331311
-0.043072
-0.0496186
-0.0849704
-0.0253035
-0.0535815
-0.0246615
-0.0114437
0.00704529
0.00940359
0.0128229
0.00815798
-0.0110927
-0.0107151
-0.016566
-0.0258548
-0.0191524
-0.0421633
-0.051784
-0.0709936
-0.0809137
-0.144535
-0.106627
-0.0946767
-0.0335949
-0.00597063
0.00601084
0.00507377
0.0154622
0.0242581
-0.00402015
-0.0107794
-0.0197904
-0.0385621
-0.0175554
-0.0389179
-0.0523113
-0.0641124
-0.0810054
-0.144942
-0.154901
0.151204
0.203742
0.130426
0.0532669
0.00917901
0.00813537
0.0382755
0.0103843
-0.00581588
-0.0152099
-0.0558553
-0.0264801
-0.0308806
-0.0542624
-0.0452012
-0.0600191
-0.12423
-0.169134
-0.0456789
0.081718
0.0555022
0.00605166
-0.0185459
-0.0179673
0.0385383
0.0230587
-0.00375679
-0.00261329
-0.0662369
-0.0479531
-0.0244774
-0.0625619
-0.0368324
-0.0294912
-0.0925449
-0.163746
0.0147684
0.0718061
0.0470636
0.00844706
-0.00118305
-0.0121404
0.0464862
0.0418117
-0.00489613
0.0130256
-0.0555038
-0.066321
-0.0157436
-0.0671
-0.0440084
-0.00530348
-0.0616353
-0.149611
0.163131
0.135438
0.0483145
-0.0455682
-0.0451677
-0.0451809
0.00447358
0.0214076
-0.0315234
0.00509275
-0.0446805
-0.0843422
-0.0148019
-0.0697102
-0.0601728
0.00401016
-0.0452759
-0.145986
0.00587201
-0.0174997
-0.0100516
-0.00456413
-0.00754433
-0.0101243
-0.0155754
-0.00767438
0.000209632
-0.000129101
-0.00229277
-0.00640228
-0.0159753
-0.0173295
-0.026494
-0.0242124
-0.0446297
-0.00517132
-0.0509373
-0.0474261
-0.03619
-0.0214411
-0.0192714
-0.0185235
-0.034772
-0.0237376
-0.00512996
0.000106733
-5.3676e-05
-0.00363186
-0.0242036
-0.0244133
-0.0429672
-0.0357565
-0.0749965
-0.0446758
0.0335284
-0.0728765
-0.0775672
-0.0432681
-0.0276348
-0.0136571
-0.038105
-0.0403441
-0.0191765
-0.00682841
-0.00164258
0.00576492
-0.0191238
-0.0215568
-0.0387137
-0.0352315
-0.0662027
-0.0715521
-0.0840849
-0.0705466
-0.0325913
-0.00145273
-0.00234037
0.0129455
-0.018676
-0.0444832
-0.0344795
-0.0201397
-0.013312
0.0079129
-0.00744265
-0.0193148
-0.0258971
-0.0284812
-0.0456631
-0.0734986
-0.106292
-0.0885391
-0.0283582
0.030854
0.0308115
0.0497738
0.0157626
-0.0301436
-0.0399781
-0.0302661
-0.0268813
-0.00459106
0.00444753
-0.0190919
-0.017537
-0.018041
-0.0260052
-0.0526625
0.0188808
0.00522329
0.0144573
0.0324919
0.00228929
0.0283125
0.0128203
-0.0185876
-0.0307242
-0.0258395
-0.0220575
-0.0211862
0.0132854
-0.0145107
-0.0176841
-0.0119253
-0.0136954
-0.0164431
-0.0182459
-0.0867636
-0.0450969
-0.00547218
-0.0667546
-0.0462462
-0.0588897
-0.0551916
-0.0431471
-0.0403313
-0.0151175
-0.0394942
0.012309
-0.00574156
-0.0186828
-0.0205588
-0.013843
0.0231475
-0.159572
-0.0534808
-0.0106708
-0.00444
-0.0001378
0.000568236
-0.0054454
-0.0051974
-0.00454508
-0.00437895
-0.00788678
-0.0121778
-0.0151487
-0.0156447
-0.0147602
-0.0136392
-0.0137714
-0.0291711
0.0141028
0.00315402
0.00914166
0.00221752
0.00574935
0.0090804
-0.00288475
-0.00704548
-0.00564347
-0.00444792
-0.0120123
-0.0210991
-0.0318491
-0.0314773
-0.0319042
-0.0222518
-0.0236653
-0.017102
-0.141471
-0.0623235
-0.0241579
-0.0167743
-0.00532711
0.00921243
0.00401048
-0.00358655
-0.00528835
0.000591523
-0.00823593
-0.0144409
-0.0355343
-0.0378177
-0.0473208
-0.0315529
-0.0342555
-0.00520569
-0.0200936
-0.026177
-0.0367145
-0.0407166
-0.0282613
-0.00635133
0.00441179
0.00580728
-0.00356257
0.00862178
-0.00419533
-0.00201188
-0.0267795
-0.0310639
-0.0549827
-0.0417198
-0.0480593
-0.0115782
-0.131735
-0.115881
-0.0667397
-0.0389719
-0.0299844
-0.022366
-0.00652814
0.0203334
0.00127049
0.0186708
-0.00095147
0.00251654
-0.0182917
-0.0123287
-0.0492268
-0.0449767
-0.0535277
-0.035537
-0.0590787
-0.0654343
-0.0815652
-0.149703
-0.157494
-0.118561
-0.0726216
0.0144632
-0.00478433
0.0134365
-0.00472883
-0.0074125
-0.0310168
0.00432598
-0.0326904
-0.0419932
-0.0471131
-0.049323
-0.0933424
-0.125919
-0.0651129
-0.0391509
0.0396831
0.0868177
0.0206229
0.0487142
-0.0308748
-0.0481569
-0.0512117
-0.0392624
-0.0722238
0.00447834
-0.0142945
-0.0286975
-0.0446964
-0.0356219
0.0437071
-0.00634864
-0.0164994
-0.0161303
-0.0121886
-0.00819792
-0.00941035
-0.0170171
-0.0177043
-0.0140738
-0.00813236
-0.00370707
0.00277353
-0.00258232
0.00211279
0.00399245
0.0165873
-0.0194254
-0.0566235
-0.0309922
-0.013565
-0.0104801
-0.0118906
-0.0114444
-0.0156812
-0.0353718
-0.0398982
-0.0339251
-0.0220767
-0.00815088
0.00570234
-0.0063037
-8.43666e-05
0.00289546
0.0179558
0.0144308
-0.00629907
-0.00437374
0.0161775
0.0133386
0.000248797
-0.0104486
-0.0137402
-0.040901
-0.0558679
-0.0500394
-0.0432406
-0.0201229
0.00798119
-0.00255974
-0.00566247
0.00657417
0.00393304
0.0216279
-0.201572
-0.0294669
0.0576141
0.0558623
0.0295651
-0.00214889
-0.00862598
-0.0348332
-0.0660702
-0.0565337
-0.0632081
-0.0437784
0.00307836
0.00869885
-0.0102384
0.0156258
0.00565478
0.00859743
-0.17696
-0.0213247
0.0682938
0.0644175
0.0437153
0.0036169
-0.00802928
-0.0173561
-0.0684435
-0.0520898
-0.0651768
-0.0683415
-0.0144762
0.0235363
-0.0104922
0.019176
0.0322398
0.0271679
-0.0381485
-0.0253162
-0.000480959
0.0119869
0.0477553
0.0417463
0.0125834
0.021412
-0.0573762
-0.046145
-0.0476603
-0.0734347
-0.037415
0.0394423
0.00208352
0.0105085
0.0540048
0.103841
-0.0886932
-0.0194778
0.043027
0.0448939
0.0608843
0.0723214
0.00864959
0.0423736
-0.0430043
-0.0376635
-0.0151933
-0.0438289
-0.0416122
0.0585178
0.0294509
0.00317143
0.0489296
0.189586
0.00377985
-0.0170113
-0.0178925
-0.0106468
-0.0107595
-0.00423051
-0.00696966
-0.0031715
-0.00529166
-0.00863619
-0.000661416
-0.00396995
0.011586
0.0139476
0.0226721
0.0348339
0.0553968
0.0281479
0.0401348
-0.0523513
-0.0471264
-0.0167892
-0.0110338
-0.000593861
-0.0100955
-0.00530023
-0.0115288
-0.0211321
-0.00883265
-0.0166312
0.01661
0.0216551
0.0359559
0.0565286
0.0826852
0.0877582
-0.0035119
-0.096088
-0.0752977
-0.0174276
-0.000416268
0.011967
-0.00774217
-0.00660347
-0.0135235
-0.030382
-0.0172067
-0.0380131
0.00138916
0.020103
0.0264205
0.0638794
0.0789782
0.0927753
0.0519205
-0.132099
-0.108678
-0.00958089
0.0242358
0.037744
0.000269452
-0.00887837
-0.0166781
-0.0401228
-0.0186903
-0.0562083
-0.0316751
0.0127642
0.00260599
0.056186
0.0818586
0.0632091
-0.0402151
-0.077616
-0.0433303
0.0339922
0.0410736
0.0491767
-0.00638492
-0.0239467
-0.0286865
-0.0610355
-0.0177085
-0.0529545
-0.0708329
-0.000233677
-0.021975
0.0236483
0.0920165
0.0587882
-0.209025
-0.214552
-0.124479
-0.0355455
-0.0500986
-0.0300459
-0.0867616
-0.0913004
-0.0634848
-0.0975999
-0.0277799
-0.0165473
-0.0925263
-0.0201263
-0.0296245
-0.0230368
0.073078
0.128723
0.00860392
-0.0382857
0.00534285
0.0917735
0.0583915
0.10441
0.00614902
-0.0528252
-0.0288244
-0.0888134
-0.0424383
0.0392824
-0.0870844
-0.0582733
-0.0233943
-0.0385682
0.0187377
0.175913
0.0490678
0.0318486
0.0124511
0.00897963
0.0100226
0.00453909
0.00257604
0.00592845
0.009475
0.0110762
0.0108305
0.0114288
0.0111717
0.013078
0.0197392
0.0271367
0.0565561
0.0672504
0.0272659
0.0349374
0.0118528
0.0127011
0.0255071
0.0159839
0.00848287
0.0127935
0.0195132
0.0251217
0.0245987
0.0262191
0.0210389
0.0212635
0.0267576
0.0298922
0.0753666
0.110021
0.133985
0.0938512
0.0401366
0.0204926
0.0396851
0.0309287
0.0119228
0.0130479
0.0178442
0.0294286
0.0301824
0.0390806
0.0312142
0.0285232
0.0311402
0.0200309
0.0506196
0.101583
0.262083
0.161778
0.0374323
0.00116614
0.035688
0.0382474
0.00556737
0.00452656
0.00538465
0.0226962
0.0240272
0.0448006
0.0435454
0.0364924
0.0440433
0.0204418
0.0251071
0.0595027
0.0548598
0.025292
0.0101852
0.00855967
0.0378761
0.0348983
-0.0205298
-0.0198651
-0.0165641
0.00670119
0.00705215
0.03565
0.0545423
0.0420378
0.0570584
0.0334624
0.032053
0.0114291
0.0467248
-0.0290662
-0.0613642
-0.0910385
-0.0913396
-0.0641752
-0.0913366
-0.05458
-0.0305299
-0.00329845
-0.00716904
0.0165276
0.0601457
0.049715
0.0595034
0.0348429
0.0690866
0.0390602
-0.0366151
-0.0322092
-0.037873
-0.0625654
-0.0533907
0.0292302
0.0164139
0.0159095
0.00650206
0.000772793
-0.0191852
-0.0071321
0.0450877
0.0553882
0.0502462
0.00444246
0.085593
0.144761
-0.0124389
-0.00459433
0.00690046
0.00553505
0.0136915
0.00333338
0.00455776
0.00181983
-0.00358801
0.00404705
0.0092792
0.0134578
0.013645
0.0177773
0.0124167
0.0181751
0.0347371
0.0526487
-0.0595297
-0.00247333
0.0265186
0.0188936
0.036161
0.0147844
0.0162694
0.0133849
-0.00430926
0.00821139
0.0169533
0.0248248
0.0263391
0.0350427
0.0199499
0.0247519
0.0504191
0.0462253
0.0739145
0.0427035
0.0560541
0.0271002
0.0515377
0.0290556
0.0232749
0.0320187
0.00201406
0.00812435
0.0183525
0.0256734
0.0262619
0.0482024
0.0266447
0.0261978
0.0562348
0.0400588
-0.0353195
-0.0628036
-0.0118854
-0.0238224
0.0370203
0.0389146
0.0193681
0.0443995
0.0136715
0.0069784
0.0173021
0.0248259
0.0111231
0.0535145
0.0319435
0.0251942
0.0645366
0.0463032
-0.0172891
-0.0627266
-0.0398424
-0.0617119
0.01588
0.0429835
-0.00464572
0.0256125
0.0134751
0.00151329
0.00833477
0.0310202
-0.0108333
0.0443641
0.0331383
0.0148838
0.0774272
0.0594188
0.0423306
-0.0766808
-0.0104342
-0.0265174
0.00931875
0.030581
-0.0513909
-0.0256161
-0.00137447
0.00442014
-0.00561096
0.0483484
-0.016049
0.0291469
0.0331482
-0.00926999
0.0960373
0.102907
-0.0369508
-0.173664
-0.0660135
-0.0726297
-0.0602276
0.0531093
0.0422283
0.0738933
0.0969881
0.101862
0.0310288
0.0875598
0.0225708
0.0386801
0.0409546
-0.0371917
0.105446
0.20912
-0.0145034
-0.0341297
-0.0180335
-0.00922714
0.00270147
0.00925223
0.0143637
0.0127371
0.00347934
-0.00436159
-0.00577268
-0.00705878
-0.00953833
-0.00172218
-0.0182305
-0.0230025
-0.0581196
-0.0763738
-0.136837
-0.0892047
-0.0398101
-0.0181353
0.00398152
0.0168548
0.0301834
0.0331619
0.0142268
-0.00474337
-0.0100167
-0.0139181
-0.0178326
0.00376799
-0.02521
-0.0245563
-0.0781485
-0.11272
-0.0367653
-0.0588542
-0.0274064
-0.00964882
0.00635193
0.0161576
0.0329351
0.0497887
0.0346455
0.00404596
-0.00581457
-0.0158163
-0.0280818
0.00607867
-0.0176824
-0.0191404
-0.051535
-0.117051
-0.0176458
-0.031333
0.0193795
0.019148
0.00892779
0.00902575
0.0250756
0.0565775
0.0598987
0.0192569
0.00546436
-0.00924346
-0.0362282
-0.00200642
-0.00848317
-0.0169227
-0.0134859
-0.10696
0.0950196
0.0116239
0.0702341
0.0536654
0.0147228
0.00946193
0.0253577
0.0577515
0.0842053
0.0363675
0.0158115
0.0014926
-0.031451
-0.014706
-0.00864087
-0.0238551
0.0218574
-0.0718339
-0.0134049
-0.0451002
0.017357
-0.0330328
-0.081683
-0.0488627
0.000111969
0.0240622
0.0702709
0.0315499
0.0102826
-0.00762269
-0.0166554
-0.0128052
-0.0240545
-0.0475136
0.0371265
0.00103788
0.0701369
-0.0479712
-0.0492614
-0.0695557
-0.0742151
-0.0162365
0.047305
0.0310217
0.0634407
0.0500982
0.0391569
-0.0352944
-0.0154863
0.0271171
-0.0484764
-0.108475
0.0332798
0.0833986
-0.0190672
0.0101621
0.0189637
0.0114409
0.00372333
0.00412666
0.00645119
0.00815652
0.00857029
0.00392095
-0.00167994
-0.000809357
-0.0110094
-0.0121545
-0.0212072
-0.0310424
-0.063376
-0.0378186
-0.0599079
-0.0177615
0.0145281
0.014365
-1.39253e-05
-0.00118793
0.0046855
0.0108603
0.017085
0.00953599
-0.00032365
0.00442428
-0.0188128
-0.0156808
-0.0314226
-0.0440487
-0.0878808
-0.0929493
-0.0262691
0.0111556
0.0249143
0.0260804
0.00618901
-0.00420172
-0.000769605
0.00499741
0.0200488
0.0175113
0.00130451
0.01719
-0.0147295
-0.0163099
-0.020913
-0.0478835
-0.0762838
-0.0958488
-0.0175171
0.0113636
0.0476627
0.0594705
0.0320083
0.00502287
0.000248874
-0.00257176
0.0156457
0.0268871
0.000505133
0.0295413
0.00349003
-0.0210774
-0.000814981
-0.0408788
-0.0764024
-0.0717323
0.0513057
0.0370373
0.00640516
0.00737546
0.0120505
0.00767581
0.0120313
0.000341551
0.00690551
0.0350159
0.000161658
0.0303856
0.0330486
-0.0252871
0.0104591
-0.0106719
-0.0927156
-0.0716356
-0.00366244
0.0512343
0.0343381
0.0392706
0.0420428
0.00703556
-0.0157482
-0.0349965
-0.0354606
0.0177747
-0.00271953
0.0128493
0.0568703
-0.022325
-0.00619929
0.0315767
-0.0920683
-0.144702
0.0298053
0.0219622
0.0409165
0.0502258
0.0429056
0.016843
0.0158569
0.0332441
0.0353506
0.060282
0.0322349
0.00123905
0.0577151
-0.0192649
-0.0589573
0.0411415
-0.0508674
-0.246685
0.0974546
0.0449946
0.017457
0.0149496
0.00747385
0.00152906
-0.00194508
-0.00303245
-0.00167967
0.00419673
0.00137905
0.00087987
-0.0027827
-0.00517341
-0.00234198
-0.00128518
-0.00801531
0.0306426
-0.0043473
0.0261488
0.00883246
0.0128781
0.00648289
-0.000181707
-0.00578902
-0.011414
-0.0114929
0.00339181
0.000366141
0.00244004
-0.00515278
-0.0110935
-0.00409018
-0.00445266
-0.0150358
0.0170848
0.0783135
0.0773638
0.0341749
0.0163081
0.00434162
-0.00174456
-0.00194057
-0.00996554
-0.022281
-0.00422467
-0.00485806
0.00108218
-0.000864594
-0.0175049
-0.00269035
-0.00632336
-0.0131967
0.00944335
0.0588104
0.0726578
0.00913643
-0.00802319
-0.0098722
-0.0111031
0.000506118
0.00382404
-0.0245819
-0.0138011
-0.0139106
-0.0116841
0.0054792
-0.0241448
-0.00253986
-0.00640602
-0.0180222
0.0215706
0.113594
0.0543103
-0.0411957
-0.055459
-0.0396036
-0.0324133
-0.0124524
0.0189369
-0.0156203
-0.021626
-0.0194652
-0.0374559
0.00318522
-0.0299011
-0.00711414
-0.000101928
-0.0379496
0.0254524
0.014962
-0.0631283
-0.0939687
-0.0779631
-0.037905
-0.0147927
-0.0111156
0.0388495
0.00597168
-0.0304816
-0.0164652
-0.0645302
-0.0134007
-0.0363152
-0.0186265
0.01474
-0.0519262
-0.0106316
0.0804901
0.0420883
-0.0134848
-0.0591362
-0.0628381
-0.0350623
-0.0678042
-0.00865091
-0.00635075
-0.0676804
-0.0211653
-0.0853189
-0.0415703
-0.0471479
-0.0358941
0.0194583
-0.0326093
-0.0376443
-0.0582743
-0.0102834
0.00158264
0.011686
0.00824687
0.00985218
0.00661101
-0.000975117
0.00442936
0.00263734
0.000251462
0.00459368
-0.00164039
-0.00163684
-0.00181028
-0.00298273
-0.0104171
-0.00026055
-0.0511632
-0.0265862
-0.00819326
0.0132624
0.0112795
0.021179
0.0182107
-0.00254195
0.00477481
0.00128304
-0.00237105
0.0117474
-0.00132106
-0.00189602
-0.00284766
-0.00767682
-0.0197624
-0.0108626
-0.0905763
-0.036863
-0.00465291
0.0142316
0.00652214
0.0230396
0.0361951
0.00408996
0.00444262
-0.00110033
-0.0153658
0.012446
0.00317698
-0.0012226
0.00421911
-0.00805763
-0.0220684
-0.0277676
0.157478
0.200073
0.128255
0.0627442
0.0108455
0.0136705
0.051024
0.0185556
0.00687724
0.00249572
-0.0341218
-0.00154517
0.00594044
-0.00503389
0.0161133
0.00111012
-0.0176873
-0.0338247
-0.0375471
0.0792628
0.0491347
0.0154783
-0.0161528
-0.0137753
0.0502977
0.0328867
0.00730381
0.0119715
-0.0438328
-0.0270042
0.00346862
-0.0159206
0.0209119
0.0178622
-0.0074407
-0.0333042
0.0236326
0.0715458
0.03803
0.0173903
0.00136691
-0.0065914
0.0552265
0.052474
0.0089274
0.0219051
-0.0316829
-0.0443714
0.00254639
-0.024815
0.0152955
0.0292793
0.0121804
-0.0404889
0.171419
0.140755
0.0367297
-0.0395918
-0.0477952
-0.0353764
0.0126037
0.0293516
-0.00972815
0.00838805
-0.0232114
-0.0565827
-0.00338356
-0.0344702
0.00855219
0.0187155
0.0280742
-0.0365554
0.00702189
-0.0166569
-0.00980289
0.000122492
-0.00570139
-0.0057865
-0.00758727
-0.00278541
0.0117404
0.0115406
0.0125169
0.01345
0.00863988
0.0120933
0.011467
0.0144366
0.0139171
-0.0158071
-0.0489149
-0.045827
-0.0376363
-0.013492
-0.0165991
-0.0128151
-0.0203344
-0.0172754
0.0144558
0.0189243
0.0238697
0.0279653
0.0167152
0.0230651
0.0210741
0.0290907
0.0294176
0.00776506
0.0363365
-0.0697691
-0.0818836
-0.034641
-0.0238919
-0.0112156
-0.0200256
-0.0355525
0.000659326
0.0143066
0.0219387
0.038024
0.0219264
0.0292561
0.0239872
0.0330609
0.0413979
0.0139198
-0.0811748
-0.064394
-0.0399672
0.00624535
0.00413357
0.00986693
0.00164158
-0.0404779
-0.0186333
0.00249536
0.0072202
0.0395828
0.024979
0.0332245
0.0292774
0.0262438
0.0584079
0.016211
-0.104568
-0.0777935
-0.0382101
0.0358295
0.0419721
0.0413109
0.0357901
-0.024037
-0.0293846
-0.00718041
-0.0104796
0.0311457
0.0239363
0.0312451
0.0413842
0.0124893
0.0681596
0.0398317
0.0189522
0.0211163
0.00217065
0.0332623
0.0187193
0.0174654
0.028974
-0.00888621
-0.0221609
-0.00326272
-0.0134436
0.0254536
0.0230131
0.0228414
0.0569111
0.00211515
0.0589745
0.0761282
-0.0253059
-0.0619523
-0.0523498
-0.0174867
-0.0498671
-0.0502618
-0.048514
-0.0472145
-0.0312719
-0.0165452
-0.0209046
0.021398
0.0219235
0.0120652
0.0678579
-0.0044598
0.0363086
0.105354
-0.15933
-0.0524788
-0.00915391
-0.00211135
0.002931
0.00489133
0.000179283
0.00113113
0.00489272
0.00687362
0.00744519
0.00471846
0.0108351
0.0138287
0.0233395
0.0357378
0.0556428
-0.00257942
0.014166
0.00462361
0.0115582
0.00580179
0.0103337
0.0157399
0.00641447
0.00233829
0.00973471
0.0136546
0.012875
0.00471602
0.0117591
0.0143895
0.0309312
0.0567857
0.0908662
0.0708343
-0.141704
-0.0609522
-0.0214985
-0.012958
-0.000648992
0.0154052
0.0143477
0.00529742
0.00975093
0.019426
0.0184817
0.00870235
0.0101466
0.00971006
0.0119378
0.0523276
0.0781287
0.0996697
-0.0203513
-0.0246536
-0.0342352
-0.0369632
-0.0233646
-0.00163296
0.0146553
0.0144122
0.00865178
0.0255705
0.0235968
0.0156038
0.0133572
0.0170479
-0.00903115
0.0358156
0.054203
0.0848896
-0.132107
-0.115722
-0.0638325
-0.0350541
-0.0240872
-0.0185244
0.00209752
0.0299585
0.0111817
0.031485
0.0284977
0.017521
0.0125638
0.036046
-0.0135153
0.0223166
0.035359
0.047116
-0.0590526
-0.066674
-0.0780607
-0.146581
-0.150756
-0.112503
-0.0662107
0.0248763
0.00543318
0.02148
0.024774
0.00968588
-0.00725175
0.0496988
-0.00387531
0.0215079
0.0330871
0.00106065
-0.090501
-0.128346
-0.0645766
-0.0336362
0.0473027
0.0964324
0.0246278
0.0561168
-0.0171841
-0.0402692
-0.0243026
-0.0180917
-0.0493107
0.0455378
0.00710492
0.0311396
0.0469422
-0.0144389
0.04322
-0.00465292
-0.0146196
-0.0154494
-0.00825724
-0.00559501
-0.00560819
-0.0113823
-0.0101526
-0.00350915
0.00464554
0.0130686
0.02633
0.0261171
0.0444655
0.0610658
0.10907
0.0539356
-0.0581283
-0.0285655
-0.00986606
-0.0102462
-0.00489248
-0.00716317
-0.010445
-0.026395
-0.0281969
-0.0173174
-0.00198455
0.0180477
0.0439298
0.0362918
0.0668879
0.0850405
0.159058
0.152478
-0.00908127
-0.00236171
0.0219053
0.0121919
0.00796145
-0.00417119
-0.0098918
-0.0319525
-0.0443325
-0.0331716
-0.0232163
0.0045746
0.0487714
0.0381546
0.0602706
0.0873538
0.135727
0.177053
-0.205179
-0.0293721
0.0660553
0.05352
0.0360261
0.00774325
-0.00626898
-0.0273449
-0.0554602
-0.0410529
-0.0445297
-0.0248455
0.0423794
0.0446418
0.047256
0.0891078
0.111431
0.170522
-0.181545
-0.0239153
0.0809864
0.0624628
0.0460395
0.0184553
-0.00522876
-0.012381
-0.0577975
-0.0385836
-0.0463837
-0.0556163
0.0219542
0.0537511
0.0386772
0.0930938
0.100614
0.176428
-0.0397403
-0.0329154
0.0116312
0.0138325
0.0445602
0.062536
0.0194253
0.0219563
-0.0448999
-0.0350435
-0.027986
-0.0645573
-0.00251034
0.0630287
0.0378431
0.0992308
0.106976
0.17861
-0.0905691
-0.028729
0.0557961
0.0571196
0.0464004
0.0928992
0.0232964
0.0359214
-0.0248658
-0.0267075
0.001793
-0.0352942
-0.00594145
0.0767015
0.046622
0.0983308
0.135172
0.199122
0.00272273
-0.0134854
-0.0194249
-0.00925593
-0.00590161
-0.00729717
-0.000253833
-0.00104593
-0.000517151
0.00105696
0.00587399
0.00936698
0.0265284
0.0345812
0.0515153
0.0665382
0.113971
0.0687125
0.03674
-0.0445926
-0.0497901
-0.0162524
-0.000396458
-0.00850173
0.00202241
-0.00239318
-0.00514761
-0.00410785
0.000427842
0.00480332
0.0407385
0.0526686
0.0819694
0.100714
0.177284
0.161769
-0.0105962
-0.0847271
-0.0764083
-0.0213507
0.016752
-0.000307193
0.00431724
-0.00124
-0.0120411
-0.00955172
-0.00941262
-0.0171605
0.0276493
0.049902
0.0757772
0.100169
0.175979
0.182521
0.0405843
-0.117224
-0.105491
-0.0212215
0.0492449
0.023466
0.00772171
0.00189524
-0.0228919
-0.0172282
-0.0123807
-0.040385
-0.00446032
0.0362998
0.0571314
0.0761939
0.165413
0.173734
-0.0576075
-0.0603303
-0.0298469
0.012924
0.0737963
0.0373262
-0.00729959
-0.00594762
-0.0421394
-0.0379676
-0.01006
-0.0465626
-0.0388246
0.00999615
0.0416698
0.0398805
0.137736
0.177997
-0.230415
-0.196805
-0.102142
-0.0711577
-0.0142098
-0.0306633
-0.0949005
-0.0660425
-0.0820715
-0.0767826
-0.0123345
-0.0277703
-0.0484864
-0.0222619
0.0258426
0.018471
0.0923379
0.185411
-0.0237709
-0.0249926
0.0529485
0.052942
0.0882773
0.110228
-0.0136893
-0.0244561
-0.0483346
-0.0706209
-0.00666016
-0.00129089
-0.033709
-0.046098
-0.00591015
0.0197676
0.0708046
0.176994
0.0495246
0.0305782
0.0140345
0.00928483
0.0103345
0.00604129
0.00373694
0.00946799
0.00818493
0.0148425
0.0155204
0.0136221
0.0170991
0.0204762
0.0220445
0.0296468
0.0470755
0.0679701
0.028608
0.031808
0.0148314
0.014016
0.0251898
0.0182113
0.0107179
0.0195651
0.0153351
0.0317797
0.0327092
0.0277176
0.0326008
0.0346106
0.02919
0.040063
0.0675006
0.10565
0.136972
0.0886379
0.0426752
0.0238772
0.0388576
0.0321846
0.0134315
0.0242827
0.0105142
0.0340478
0.0434235
0.0355845
0.042414
0.0492488
0.0304004
0.028659
0.0562346
0.0990602
0.267873
0.153922
0.0374593
0.00665818
0.0358801
0.0383747
0.00300963
0.0223268
-0.00273763
0.0194192
0.0458284
0.0377794
0.0449017
0.0675469
0.045903
0.0160669
0.0303368
0.079903
0.0634635
0.0154938
0.00707396
0.0153297
0.0401802
0.0361829
-0.0317813
0.00413714
-0.0194316
-0.0104757
0.0359836
0.0352728
0.0380804
0.0744552
0.0762712
0.024656
0.00273886
0.0256253
0.0594396
-0.0378665
-0.0743863
-0.0869381
-0.0833971
-0.0528486
-0.113337
-0.0293853
-0.0213551
-0.0367307
0.0191755
0.0330693
0.0344635
0.0601922
0.0952035
0.0613221
0.00582414
-0.0574768
-0.0270025
-0.032184
-0.0405537
-0.0630957
-0.0608965
0.0458294
-0.0168053
0.0415979
0.0397014
-0.0390921
-0.00567909
0.0197337
0.0407247
0.0314291
0.0624541
0.0968627
0.0623079
-0.120819
0.0771387
0.026276
-0.00807873
0.0056897
-0.0579466
-0.00833055
0.0296634
0.0157333
0.0551605
0.0908567
0.0395536
-0.0277258
0.0424875
0.0950697
-0.0801547
-0.122786
0.263369
0.255825
0.0822208
-0.0585914
-0.0114361
0.081927
0.00843041
0.0114919
-0.0799833
-0.133001
0.0190698
0.0218931
-0.0366366
0.0593414
0.089095
0.144634
-0.00109761
-0.221479
0.0480691
0.393954
0.152506
0.10276
0.126493
-0.0924698
-0.143049
0.179349
0.0595459
-0.100398
0.0547263
0.0856231
0.0333904
-0.0170961
0.0278443
0.11805
-0.0638841
-0.0484946
-0.0427725
-0.0201041
-0.00677407
-0.0881226
0.117892
-0.00927437
-0.246278
0.0201933
0.10755
-0.0349074
-0.0709536
-0.0458303
0.036465
-0.0253753
-0.153069
-0.0383039
0.0275485
0.0347531
0.116619
0.0434807
-0.0662399
-0.0300555
0.0552284
-0.0667532
0.113425
0.151353
0.0763644
0.169349
0.0541808
0.0999068
0.00809824
-0.0679036
0.0230816
-0.0410147
0.100854
0.167413
0.0337517
0.133007
0.0169651
0.0240616
-0.017626
-0.00422707
0.123166
-0.0960996
0.055749
0.183842
-0.225223
-0.0733237
0.192695
0.0512054
-0.0260924
0.0380006
0.117251
-0.0439731
-0.239394
0.00445813
-0.0118136
0.0280713
-0.131662
-0.067426
-0.127005
-0.178784
0.213535
0.0765586
-0.123038
-0.0654879
-0.0973544
0.0389493
0.14405
0.049581
-0.0720008
0.0499148
0.132974
-0.256821
-0.0341707
-0.0516996
-0.198307
-0.0258115
-0.0394604
0.0388027
0.100703
-0.166595
-0.023013
-0.0408676
-0.230936
-0.0797992
0.0747118
0.0739066
-0.0325742
-0.0442399
-0.0211028
-0.128363
0.110218
0.0869862
-0.0854931
0.105198
-0.0845977
-0.0586764
4.30587e-05
0.171077
0.188191
-0.142128
0.0709098
0.204898
-0.0368705
-0.0696352
0.0328423
0.109725
-0.0717087
-0.12274
0.0132813
0.0625833
0.120307
0.220922
0.0322572
0.0921159
-0.0365683
-0.0388215
0.0299016
0.0641663
0.196787
0.00605311
-0.0302665
0.171974
0.0334508
-0.0984282
-0.0324632
0.0986992
-0.0200553
0.0605444
0.112746
0.0715237
0.0387942
0.0825622
0.138301
0.173104
0.173999
0.118379
0.0784174
-0.0396274
-0.0182559
0.0305238
-0.0421312
0.000716183
0.0331103
-0.0200075
0.00498597
-0.0103692
-0.0136529
-0.0495747
-0.0222107
-0.0200036
-0.0436897
0.0407049
0.11944
0.0916861
0.0483327
-0.00403909
0.0677381
0.102529
-0.0280604
-0.00582853
0.0888318
-0.182364
-0.0856299
-0.0226151
0.147201
0.0261916
-0.0877958
0.0413177
0.0768202
-0.0379775
0.0757092
0.0902346
-0.105774
-0.0427379
0.0582523
-0.048328
-0.154427
-0.0876486
0.0787819
-0.154682
-0.119847
-0.158698
-0.0780245
-0.0434976
0.0226844