/*--------------------------------*- C++ -*----------------------------------*\
| =========                 |                                                 |
| \\      /  F ield         | OpenFOAM: The Open Source CFD Toolbox           |
|  \\    /   O peration     | Version:  3.0.1                                 |
|   \\  /    A nd           | Web:      www.OpenFOAM.org                      |
|    \\/     M anipulation  |                                                 |
\*---------------------------------------------------------------------------*/
FoamFile
{
    version     2.0;
    format      ascii;
    class       volScalarField;
    location    "0.1";
    object      Uz_mode_1;
}
// * * * * * * * * * * * * * * * * * * * * * * * * * * * * * * * * * * * * * //

dimensions      [0 0 0 0 0 0 0];

internalField   nonuniform List<scalar> 
244500
(
-0.0935273
-0.000932594
0.022443
0.016046
0.0143706
0.012426
0.0143275
0.0103218
0.000643941
-0.00323168
-0.00438828
0.00079055
-0.0040451
-0.00353455
-0.00225695
-0.0145668
-0.0170657
0.0155028
-0.0308003
0.0295948
0.0517128
0.0359488
0.0294217
0.0209406
0.0253952
0.0222105
0.00310759
-0.00737211
-0.00903416
0.00148416
-0.00838196
-0.00322404
-0.000254382
-0.0265552
-0.0265489
-0.0192181
0.122832
0.0585774
0.0533793
0.0349305
0.0315819
0.0175406
0.0196214
0.0273731
0.0109461
-0.00785377
-0.0151959
0.00266891
-0.0145351
-0.00796871
0.0114616
-0.0307861
-0.0268781
-0.0162062
-0.014657
0.0346794
0.040424
0.0247253
0.0260719
0.00535052
-0.00555015
0.0126252
0.0159983
-0.00122512
-0.0228066
0.00767909
-0.0187426
-0.0278281
0.0255577
-0.0316469
-0.0392734
-0.00499987
-0.0699263
-0.0767144
-0.0195241
-0.00461985
-0.00390778
-0.0351086
-0.0596077
-0.0349553
0.00265744
0.0145027
-0.02813
0.0164702
-0.00616782
-0.0653904
0.0300704
-0.0244674
-0.0654238
-0.0382552
-0.0399508
-0.0568662
0.0367168
0.0289079
-0.0193776
-0.0587544
-0.0700754
-0.0445118
0.00430525
0.0598771
-0.0130118
0.0251184
0.0379129
-0.107774
0.00553312
-0.00907868
-0.0818509
-0.107398
-0.0436504
-0.109424
0.00846791
0.0227494
-0.0317835
-0.0454642
-0.017661
-0.0141092
-0.0122724
0.0948618
0.0144461
0.0134067
0.0968456
-0.132558
-0.0654331
-0.0124985
-0.0724541
-0.114224
0.0506361
0.0365741
0.018038
0.00476991
0.00158413
0.00305114
0.00657527
0.00710156
0.00199242
-0.00531728
-0.00967285
-0.010543
-0.0154117
-0.0185556
-0.0260151
-0.0343878
-0.0760639
-0.0647286
0.0816838
0.0759834
0.0458957
0.00787003
-0.00886559
-0.00841594
0.0035227
0.0135611
0.00791715
-0.00524111
-0.0141734
-0.0148888
-0.0253365
-0.0276686
-0.0392581
-0.046792
-0.112042
-0.0933213
0.00845156
0.0879316
0.0642953
0.0113516
-0.0182375
-0.0247835
-0.0129357
0.0100233
0.0159073
0.00246641
-0.0108472
-0.0106055
-0.0247534
-0.0297794
-0.0355281
-0.0437979
-0.107542
-0.10174
0.0757484
0.123007
0.0788599
0.0174719
-0.0167557
-0.0289892
-0.029732
-0.00572854
0.0182778
0.013326
-0.00248235
-0.0011253
-0.0155998
-0.0335877
-0.0255922
-0.0332188
-0.100312
-0.106106
-0.028734
0.0681548
0.078416
0.0348266
9.31076e-05
-0.0151182
-0.0361334
-0.0321614
0.00631845
0.0212434
0.00966996
0.0116906
0.00430014
-0.0390534
-0.0223346
-0.0130195
-0.0893067
-0.127624
-0.000533153
0.0064402
0.0599996
0.064751
0.0252761
-0.00446145
-0.0462851
-0.0697666
-0.0183775
0.0270284
0.0289093
0.0246554
0.0321198
-0.0401622
-0.036758
0.00210004
-0.0651428
-0.134835
0.0579988
0.0569242
0.0836069
0.0658863
-0.0142363
-0.0399203
-0.0528086
-0.0889865
-0.0438541
0.0101351
0.0215374
-0.00192822
0.0256468
-0.0489101
-0.0711659
-0.00686085
-0.0553062
-0.0864807
0.0201537
0.029644
0.0215346
0.0174856
0.0115263
0.00141706
-0.000352464
0.000593359
-0.00505431
-0.00538898
-0.010233
-0.0101363
-0.00770625
-0.0152642
-0.0199923
-0.0291416
-0.0727967
-0.0553088
0.0987431
0.0384803
0.0306875
0.0275774
0.0184457
-0.00168636
-0.00359254
0.00257453
-0.00741754
-0.00903592
-0.0201244
-0.0180996
-0.0117029
-0.0208464
-0.023741
-0.0300355
-0.0966923
-0.10535
0.215763
0.114673
0.0544787
0.035102
0.0282011
0.00130642
-0.00798217
0.00459037
-0.0041399
-0.00506597
-0.0236002
-0.0258167
-0.0130778
-0.0265145
-0.0189732
-0.0199165
-0.0740734
-0.105247
-0.0105193
-0.00130439
0.0242238
0.0374143
0.0483878
0.0208236
-0.00414377
0.00671279
-0.00105202
0.00411799
-0.0197752
-0.0347873
-0.0111632
-0.0385641
-0.0187957
-0.00893401
-0.0543677
-0.0786061
0.0149623
0.0250107
0.0202566
0.0259392
0.0595534
0.0469727
0.0118704
0.0140819
-0.00117986
0.0139878
-0.00679052
-0.0426113
-0.00324458
-0.050053
-0.0303134
0.00217064
-0.0449734
-0.0610854
0.00661862
0.00838469
0.0159967
0.0189246
0.0573208
0.0606748
0.0359015
0.041721
0.00829924
0.0292357
0.0198075
-0.0413407
0.0152552
-0.0509253
-0.0473221
0.010485
-0.0369907
-0.0653607
-0.0196908
0.0217652
0.0486839
0.00575296
0.0127869
0.00308892
-0.0204081
0.000519001
-0.0453931
0.00253605
0.0341533
-0.0322242
0.0509466
-0.0364901
-0.0562793
0.019559
-0.0222944
-0.0753266
0.0491934
0.0318191
0.00898049
0.0034975
0.000744505
-0.000179303
0.00666171
0.00580249
0.00113393
0.00331706
-0.0035709
-0.00271886
-0.00689531
-0.00958728
-0.0110482
-0.0108506
-0.00102291
0.0100851
0.0264769
0.0445261
0.0239175
0.00706013
-0.00371116
-0.00573535
0.0134578
0.0167338
0.00684183
0.0112837
-0.00525507
-0.00437963
-0.0137966
-0.020197
-0.0214392
-0.0267416
-0.00755727
-0.0224904
0.0507182
0.0835313
0.0618729
0.0247979
-0.000458181
-0.0134008
0.0140663
0.031102
0.0173386
0.0254686
0.00163008
-0.00159383
-0.0123332
-0.0273934
-0.0249111
-0.0383929
-0.00874444
-0.0332103
0.0959112
0.103887
0.0516418
0.00355036
-0.0129028
-0.0290409
0.00325993
0.0435037
0.0307775
0.044573
0.016565
0.00513811
-0.00281533
-0.0321802
-0.0259242
-0.0507746
-0.01229
-0.0229499
0.0884795
0.0236515
-0.0634182
-0.0819013
-0.0575309
-0.0642237
-0.0299961
0.0419192
0.0401724
0.0637081
0.0353583
0.0116631
0.0127697
-0.0343425
-0.0232228
-0.0605108
-0.0307279
-0.00765112
0.0114067
-0.0178332
-0.0769274
-0.114208
-0.0883703
-0.0778047
-0.0342844
0.0673942
0.0670551
0.0907546
0.0572252
0.00975154
0.0288423
-0.0356694
-0.0213076
-0.0553864
-0.05533
-0.0167667
0.0835495
0.0514913
-0.0218672
-0.0878644
-0.075202
-0.0563937
-0.0122141
0.104376
0.0818301
0.0921084
0.0540085
-0.028426
0.0221649
-0.0385602
-0.0271903
-0.0447306
-0.0627563
-0.0252775
-0.0136962
0.00143505
-0.00761311
-0.0078137
-0.0059842
-0.00397971
5.68928e-05
-0.00726525
-0.00105426
0.000301278
-0.000350062
-4.21329e-05
-0.00807123
-0.00718624
-0.0117894
-0.00919488
0.00173986
0.0107502
0.0405965
0.0263441
-0.00836224
-0.0241648
-0.0222514
-0.0128347
0.00261668
-0.0142709
-0.00383206
-0.00145572
-0.000575617
0.00225892
-0.0130334
-0.0126663
-0.0252395
-0.0245755
-0.00652607
-0.00845144
-0.111001
-0.0432224
-0.0523405
-0.0576035
-0.0458413
-0.0291417
0.00780029
-0.0123007
-0.00730531
-0.00442093
-0.00537548
0.00725294
-0.00893304
-0.00646951
-0.0217197
-0.0377496
-0.00507409
-0.0293618
-0.0503831
-0.00614387
-0.0301848
-0.0543823
-0.049595
-0.0442607
0.0120975
-0.0012058
-0.00639934
-0.00482486
-0.0161437
0.00667986
-0.00342454
0.00306492
0.0017383
-0.0424418
-0.00207471
-0.0125568
-0.0694237
-0.00672782
-0.0102445
-0.0335712
-0.0236461
-0.0417656
0.0172681
0.0158531
0.000673954
0.00218031
-0.0255407
-0.00334785
0.000374023
0.00422465
0.0344028
-0.0219166
-0.012219
0.0318954
0.0375782
0.0432965
-0.0461099
-0.0958466
-0.0472156
-0.0547452
0.00931204
0.0276266
0.0079081
0.0132715
-0.0233277
-0.0206448
0.00577975
0.000845504
0.0511769
0.0293202
-0.0207235
0.0616658
0.0665943
0.0689771
0.00100932
-0.0480919
-0.000825476
-0.0330786
0.00808053
0.0444892
0.0256604
0.0263037
0.00203866
-0.0350684
0.0124872
0.0162661
0.0453836
0.0817793
-0.00267557
0.0756147
0.0123087
-0.0156656
-0.00908092
-0.00385241
-0.00471348
-0.0022909
-0.00259747
-0.00327004
0.00400064
0.00161153
0.005829
0.00163199
0.00195656
0.0064287
0.00348833
0.00842787
-0.00196568
-0.016668
-0.0124562
-0.0475749
-0.0286592
-0.00996623
-0.00909952
-0.00437219
-0.00579675
-0.0111421
0.00291876
-0.000504813
0.0115029
0.00345275
0.00370778
0.014167
0.00648216
0.0235084
0.0062277
-0.00985226
-0.114846
-0.0654816
-0.0356776
-0.0141611
-0.0134219
-0.007849
-0.00630296
-0.0194587
-0.00396977
-0.0107245
0.00884741
0.00626148
-0.000573871
0.0214074
0.00355462
0.0293571
0.0223257
-0.00593872
0.0424227
-0.0390339
-0.0451799
-0.025322
-0.0219122
-0.0160916
-0.00742518
-0.0264077
-0.00988925
-0.0242572
-0.00594999
0.00862595
-0.0113762
0.0279885
0.00457551
0.0206727
0.0434405
-0.00481994
-0.0768268
-0.0407549
-0.0378785
-0.0215379
-0.0167443
-0.0173251
-0.00614511
-0.0308215
-0.00874987
-0.0260116
-0.0275375
0.0103418
-0.0243128
0.0251626
0.0202401
0.00243002
0.056369
0.010305
0.153656
0.0587024
-0.0317604
-0.01559
0.0119405
0.0129926
0.0309894
0.00445693
0.0305273
0.0198701
-0.0274315
0.0197454
-0.0237549
0.00681152
0.0458797
-0.00474289
0.0441889
0.0344859
-0.0259974
0.0464306
0.00627131
0.026317
0.0472768
0.0420862
0.0772995
0.054617
0.0624451
0.0683638
-0.0282906
0.00870102
-0.0174253
-0.0286461
0.049846
0.00414595
0.0136949
0.0139305
0.00199467
0.00177294
-0.00765376
-0.0133508
-0.00846707
-0.00545524
-0.00414081
-0.00102043
0.00173242
0.00512448
0.0061662
0.00466987
0.0119887
0.010272
0.0167459
0.0211223
0.0292675
-0.0009456
-0.0555024
0.00152866
-0.0111001
-0.024578
-0.0132208
-0.00369064
-0.000344405
0.00184748
0.00448882
0.00821975
0.00866049
0.00538819
0.0208305
0.0168599
0.0281868
0.0350513
0.0452407
0.0405237
-0.0318601
-0.0258554
-0.0238572
-0.0307372
-0.0151468
0.000253172
0.00907909
0.0102945
0.00932638
0.0114864
0.00799477
-0.000976604
0.0182399
0.0182228
0.0247578
0.0435191
0.0353969
0.0564118
-0.00430847
0.00654925
-0.000509047
-0.0166878
-0.0108536
-0.000615305
0.0150189
0.0219494
0.016088
0.0187121
0.00930046
-0.00771762
0.00726379
0.0177655
0.0137767
0.0489539
0.0300728
0.0456504
0.0528534
-0.0446225
-0.0454111
-0.0557029
-0.0513277
-0.0435883
-0.0117886
0.020195
0.0138578
0.023724
0.0108355
-0.00915654
-0.0044509
0.0170367
0.00589263
0.0440858
0.0393847
0.0270349
0.0274223
-0.0741964
-0.0723677
-0.090675
-0.0758341
-0.065544
-0.0300081
0.0253025
0.00625754
0.0237141
0.00915755
-0.00239262
-0.00290695
0.0212663
0.0167785
0.0332685
0.0512592
0.0185442
-0.0147013
-0.152318
-0.123743
-0.104613
-0.0207735
0.00132705
-0.00602584
0.0406195
-0.0127324
0.0202304
0.0107474
0.0188094
0.0255382
0.0356325
0.0474881
0.0307526
0.0552074
0.0168415
0.0515449
0.016097
-0.00200065
-0.00601476
-0.00256081
-0.00143179
-0.0010354
-0.00394974
-0.000754702
0.00533789
0.00559977
0.00847686
0.0175262
0.017989
0.0339978
0.0511948
0.093731
0.0810262
-0.038793
0.0155299
0.00728597
-0.00384703
0.00116631
0.00610998
0.00766609
-0.00541477
-0.00392443
0.00572451
0.0028984
0.00999991
0.0268531
0.0206968
0.0475708
0.0672269
0.128421
0.155445
-0.0460525
-0.0136549
0.00241222
-0.000682893
0.00608441
0.0153484
0.0269265
0.00508461
-0.00716201
0.00653294
-0.00549278
-0.00036371
0.0284158
0.0147552
0.0361526
0.0650275
0.101897
0.155825
-0.0922547
-0.0411773
0.014047
0.0151985
0.019404
0.0266837
0.0532669
0.0332607
-0.00694226
0.0124606
-0.00882789
-0.019338
0.0259685
0.0136264
0.0113023
0.0619873
0.079536
0.118158
-0.00743058
0.0423795
0.030438
-0.00318845
0.0145326
0.0287829
0.0685509
0.0702882
-0.00551705
0.0167941
0.00187805
-0.037008
0.0185942
0.0262656
-0.0155009
0.0463983
0.0814061
0.0874679
0.0134171
-0.0203761
-0.0463071
-0.0468632
0.0128832
0.0198861
0.0342192
0.0768212
-0.0149966
0.00873295
0.0266706
-0.0362658
0.01067
0.0537247
-0.0256433
0.0120924
0.0859641
0.0915128
-0.0445246
0.0839969
0.102186
0.0105693
0.00718492
0.00515323
-0.00676874
0.0961803
0.0028207
-0.002909
0.0351368
-0.0397053
-0.00894286
0.0674967
-0.0284511
-0.027637
0.0736009
0.102708
-0.0381485
-0.0331121
-0.0183055
-0.00752976
-0.00889008
-0.000501333
-0.00238464
0.000321474
0.00439606
0.00135219
0.0104521
0.00442024
0.0126428
0.016315
0.0218599
0.0288048
0.0568041
-0.00405517
-0.0380463
-0.0562233
-0.0266624
-0.00199017
-0.0106913
0.000380169
-0.00409532
0.000433679
0.0105591
0.00373356
0.0213183
0.00470373
0.0206817
0.0261109
0.0325981
0.0472748
0.0944957
0.0538
-0.0389386
-0.0831204
-0.0325191
0.00471313
-0.0134412
-0.00533419
-0.00980798
-0.00626234
0.0132893
0.00440856
0.0318198
0.00615948
0.0150318
0.0330197
0.0213491
0.047568
0.0891545
0.0914664
0.0311347
0.0575149
0.0373322
0.0219654
-0.0231273
-0.0194116
-0.020724
-0.0183973
0.0127657
0.0022582
0.0449897
0.01992
0.00021559
0.0437958
0.00850223
0.0304752
0.0759257
0.0917559
-0.0595116
-0.0470382
-0.0611781
-0.0275944
-0.0343246
-0.0132334
-0.0156474
-0.0216595
0.0189755
-0.00144963
0.0551244
0.0536818
-0.0152188
0.0489441
0.0144485
0.00245871
0.0632462
0.0607331
-0.137337
-0.0882984
0.0083928
0.103141
0.0696347
0.0397819
-0.0116416
-0.0414559
0.0211204
-0.0133468
0.0417726
0.0983084
-0.0213702
0.032666
0.0354776
-0.0141666
0.0516566
0.0282603
-0.0836195
-0.0683463
-0.041407
0.0174006
-0.0150192
0.00905055
-0.0179103
-0.0519557
0.0469614
-0.0125677
-0.00825913
0.128781
-0.0178588
-0.0164759
0.043751
-0.0106152
0.0478956
-0.0239613
-0.0926601
-0.0534803
-0.0119739
-0.00209149
-0.00029028
0.000217507
-0.00477277
-0.00301725
-0.00210658
-0.00650897
0.00414714
0.00409722
0.00577177
0.00938011
0.00739129
-0.00344099
0.00757581
-0.0311821
-0.106273
-0.103506
-0.0323116
-0.000880667
0.00556901
0.00356481
-0.0089512
-0.00315398
0.000661717
-0.0123266
0.00813088
0.0055333
0.00886433
0.0206671
0.0172982
-0.00171576
0.0213416
-0.0124721
-0.0279927
-0.0775059
-0.0233518
0.00757946
0.0129777
0.0108314
-0.0135375
-0.00693488
0.00969045
-0.0115023
0.0110043
0.00914689
6.58634e-05
0.022536
0.0248874
-0.00506123
0.0193906
0.0172925
-0.0546449
-0.0630087
0.00122738
0.0188272
0.0143776
0.0186072
-0.0183466
-0.0191387
0.0189752
-0.00192899
0.0182069
0.0242538
-0.00794618
0.00965984
0.0329079
-0.00922578
-0.00352649
0.0312315
-0.0948769
-0.165119
-0.109577
-0.0365131
-0.00887104
0.0219858
-0.0196338
-0.0356896
0.024407
0.0137157
0.0294973
0.0475781
0.0018414
-0.0160367
0.0271593
0.00432486
-0.0348619
-0.0116168
-0.0617385
-0.144508
-0.0407935
0.0145338
-0.028262
-0.00751668
-0.0430407
-0.0647456
0.0160605
0.0162381
0.0294851
0.0518444
0.0218167
-0.039034
-0.0199553
0.0285663
-0.0223079
-0.0986401
0.150184
0.0314192
0.0142835
0.0751453
0.0390646
0.0764401
0.031988
-0.0323758
0.0354384
0.0190961
0.0278376
0.0300554
0.0327759
-0.0314055
-0.105436
0.0200448
0.062084
-0.129291
-0.094436
2.63753e-05
0.0232132
0.0158158
0.0150678
0.0131853
0.0151942
0.0103319
0.00315235
-0.000192514
-0.00209809
0.00520046
0.00255192
0.00334685
0.00597697
0.00343586
0.00633422
0.0340895
-0.032947
0.0312475
0.0539019
0.0358828
0.0298513
0.0226768
0.0270168
0.0209826
0.00779122
-0.00209338
-0.00649218
0.0104159
0.00129814
0.00696143
0.0127246
-0.00150084
0.0122101
0.00222361
0.119361
0.0599776
0.0568184
0.0362327
0.0311954
0.0188722
0.0233951
0.0233572
0.014784
0.000528403
-0.0165457
0.0135621
-0.00259277
6.24781e-06
0.0243066
-0.00688935
0.0106283
0.00379922
-0.0195999
0.0351026
0.0445797
0.0287304
0.0262805
0.00380587
0.00229687
0.00686883
0.0142864
0.0135467
-0.0296996
0.0154841
-0.000201244
-0.024369
0.0335063
-0.00333598
-0.0104506
0.00747753
-0.0751145
-0.076377
-0.0177587
0.00110594
0.000571348
-0.0423871
-0.0477726
-0.0369005
-0.0108035
0.0373851
-0.0360933
0.0126387
0.0216326
-0.0606449
0.0222762
0.01375
-0.0307537
-0.0538308
-0.0475979
-0.0573917
0.0375682
0.0368003
-0.00326153
-0.0747477
-0.0606069
-0.0334322
-0.0242466
0.0869716
-0.0125592
0.00511062
0.0674685
-0.0885458
-0.0227307
0.0225719
-0.0100547
-0.134653
-0.0534446
-0.0996291
0.00290999
0.0111175
0.00127074
-0.0580139
-0.0168829
0.0176953
-0.0530392
0.116182
0.0273525
-0.012293
0.115017
-0.0991152
-0.0965832
-0.00371157
0.0254041
-0.104578
0.0501797
0.0374053
0.0175278
0.00574704
0.00238062
0.00221817
0.008348
0.00816564
0.00150144
-0.00120026
-0.00954448
-0.00863069
-0.0134384
-0.019031
-0.0272418
-0.0435743
-0.0907566
-0.0934247
0.0806409
0.0779634
0.0447658
0.0097853
-0.00685888
-0.0109198
0.00711503
0.0151978
0.0056578
0.00291925
-0.0145372
-0.0117648
-0.0197177
-0.0289487
-0.0375858
-0.0580976
-0.125262
-0.142926
0.00645113
0.0911695
0.0624804
0.0129278
-0.0135351
-0.029638
-0.00897562
0.0140202
0.00958271
0.0124705
-0.00976585
-0.0113136
-0.0139638
-0.0318239
-0.0317726
-0.0531109
-0.113941
-0.141334
0.0726394
0.127522
0.0762863
0.0168264
-0.00742109
-0.0358392
-0.0279225
0.00338854
0.00762706
0.021352
0.00454105
-0.00977106
-0.00186905
-0.032101
-0.0243064
-0.0383922
-0.101069
-0.139874
-0.0348363
0.0757573
0.0778573
0.0287121
0.0150335
-0.0218679
-0.0400648
-0.0169237
-0.00488948
0.0211288
0.0263979
-0.00309082
0.0125546
-0.0281419
-0.0250856
-0.019619
-0.0776317
-0.152047
-0.00652024
0.0105832
0.0591312
0.0529562
0.0495647
-0.0057999
-0.057909
-0.0527483
-0.0237163
0.014111
0.0535463
0.0118094
0.0250967
-0.0174141
-0.0392179
-0.0164479
-0.0429162
-0.127246
0.0466086
0.0664366
0.0990395
0.0395298
-1.1683e-05
-0.0368648
-0.0626606
-0.0730789
-0.0381389
-0.0142255
0.0486293
-0.00520386
-0.00592425
-0.013282
-0.0625264
-0.0508289
-0.026084
-0.0529416
0.0202975
0.0287352
0.0222634
0.0181623
0.0113928
0.00160329
0.000374229
0.000901328
-0.00484672
-0.00452047
-0.0078911
-0.00745334
-0.00614072
-0.00684631
-0.0125895
-0.018658
-0.0383622
-0.0489309
0.0994125
0.0362876
0.0311973
0.029432
0.0184928
-0.00197402
-0.00192424
0.00304223
-0.00808031
-0.00762454
-0.0167513
-0.0150506
-0.01014
-0.00838057
-0.0144772
-0.0209602
-0.0443239
-0.0929102
0.217285
0.11171
0.0534488
0.0374502
0.0295908
0.000120305
-0.006064
0.00667497
-0.00638616
-0.00434444
-0.0188591
-0.0236163
-0.0140751
-0.0111636
-0.0111764
-0.0162697
-0.0216061
-0.0853851
-0.00781272
-0.0043852
0.021039
0.0384919
0.0519966
0.0194573
-0.00379394
0.0123226
-0.00403175
0.00181239
-0.0121354
-0.0322826
-0.0187684
-0.0175956
-0.0121619
-0.0165979
0.00534419
-0.0589439
0.0182066
0.022548
0.0160217
0.0234829
0.0651944
0.0477598
0.00785848
0.0238488
-0.00157721
0.00549108
0.00421367
-0.0358523
-0.0227412
-0.0218161
-0.0184394
-0.0298186
0.0253459
-0.00672134
0.00947854
0.00898288
0.012996
0.0104379
0.0621701
0.0673016
0.0260078
0.0539215
0.0153738
0.0116962
0.0331188
-0.0243043
-0.022875
-0.0147319
-0.018448
-0.0581279
0.0222986
0.0780519
-0.0177993
0.0230461
0.0505198
-0.0069389
0.00918502
0.0183889
-0.0339895
0.0117739
-0.0267934
-0.0263308
0.0481206
0.00329219
-0.0161755
0.00674094
0.00718521
-0.0907317
-0.0092795
0.16192
0.0492456
0.0303151
0.0102165
0.00344466
0.000455758
0.000786903
0.0059817
0.00618998
0.00125653
0.00370386
-0.00283526
-0.000794397
-0.00498408
-0.00543995
-0.00365357
0.00173886
0.0177172
0.0379927
0.0272265
0.0412468
0.0259389
0.00765119
-0.00441256
-0.00354593
0.0118169
0.017567
0.00656105
0.0115847
-0.00453363
-0.00274768
-0.011918
-0.0159037
-0.013026
-0.0123024
0.0148073
0.0136535
0.0527256
0.0786806
0.0631932
0.026392
-0.0020489
-0.00973151
0.0118595
0.0320569
0.0173103
0.0247254
0.0037583
-0.00154678
-0.010526
-0.0237006
-0.0188802
-0.0228696
0.00646522
-0.00147748
0.0993825
0.097803
0.0514011
0.00632007
-0.0161258
-0.023534
0.000994584
0.0438861
0.0327824
0.0403936
0.0222695
0.00409734
-0.00324309
-0.0250603
-0.0262922
-0.0318563
0.00174803
-0.00394229
0.0943761
0.01569
-0.0673043
-0.0773559
-0.0630425
-0.0565642
-0.031297
0.0396559
0.0480788
0.0526693
0.0445838
0.014777
0.00274318
-0.0170856
-0.0304107
-0.0476892
-0.00312778
0.0100218
0.0169275
-0.0228596
-0.0818356
-0.107861
-0.0996264
-0.0697274
-0.0321655
0.0584429
0.0874249
0.0711531
0.0637379
0.029129
-0.000764435
-0.0080353
-0.021869
-0.0674517
-0.0176731
0.0363101
0.0889639
0.0485342
-0.0317994
-0.0775553
-0.0892564
-0.0455802
-0.00295076
0.0779769
0.120024
0.0675676
0.0453117
0.0213227
-0.0280455
-0.0151159
-0.0034649
-0.0819927
-0.0416163
0.0677714
-0.0132922
0.000849634
-0.00772677
-0.00818886
-0.00648449
-0.00347192
-0.00178274
-0.00647761
-0.00243047
-0.000341184
-0.00130572
-0.00237952
-0.00894626
-0.0115083
-0.0175715
-0.0135761
-0.0218084
0.0207528
0.0415625
0.0254013
-0.00846516
-0.0250295
-0.0232081
-0.0114733
-0.00130075
-0.0122598
-0.00683646
-0.00237879
-0.00290886
-0.00192942
-0.0146664
-0.020872
-0.0347631
-0.0295212
-0.0448518
-0.015549
-0.109387
-0.0443809
-0.0523712
-0.0587454
-0.047891
-0.0261501
0.00209635
-0.00931055
-0.0103348
-0.00555444
-0.00703904
0.00105842
-0.00777055
-0.0170487
-0.0321309
-0.0367481
-0.046576
-0.0439472
-0.0482404
-0.00771147
-0.0297777
-0.0552413
-0.0538212
-0.0389647
0.00471643
0.00208062
-0.00819325
-0.00691705
-0.0146303
-0.00355558
0.00292366
-0.00685731
-0.0153274
-0.0265273
-0.0446347
-0.0369445
-0.0665257
-0.00869379
-0.00959868
-0.0338263
-0.0313237
-0.0338199
0.00867901
0.0183911
0.00130621
-0.00248947
-0.0182989
-0.018458
0.00856516
0.0047095
0.0011287
0.00644869
-0.0375618
-0.0165939
0.0418748
0.0381276
-0.0446326
-0.0919306
-0.0573012
-0.0449326
-0.00123397
0.0279039
0.0124107
0.00457416
-0.0102498
-0.0363444
0.00664381
0.0202071
0.00632122
0.0474079
-0.0128939
0.0068733
0.0711534
0.0653918
0.00526538
-0.0479996
-0.0168383
-0.0177408
-0.00210058
0.0415178
0.0334208
0.0146846
0.0159379
-0.0451849
0.00304256
0.047876
0.00769446
0.0746237
0.0214783
0.0437439
0.0125385
-0.0170468
-0.00648793
-0.00484773
-0.00578675
-0.000215058
-0.00580035
-0.00331629
0.00179731
1.29327e-05
0.00390441
-0.00190833
7.4935e-06
0.00172143
-0.00308982
0.00745194
-0.0140846
0.0170356
-0.0115975
-0.0516325
-0.0234456
-0.0106012
-0.0120444
0.00072005
-0.0119369
-0.0110229
-0.00125532
-0.00313795
0.00753178
-0.00267859
0.000194029
0.00471703
-0.00718776
0.0210642
-0.0176713
0.000964207
-0.112546
-0.0729548
-0.0299312
-0.0120308
-0.019267
0.000309836
-0.0127787
-0.019774
-0.00825132
-0.0137407
0.00505423
-0.00197591
-0.00143506
0.0112821
-0.0129529
0.0250094
0.00397057
-0.0146555
0.0472373
-0.0504896
-0.0412314
-0.018652
-0.0310908
-0.00564801
-0.0121257
-0.0274385
-0.0136953
-0.0277822
-0.00743973
-0.00374094
-0.00821054
0.0207462
-0.0123893
0.0132072
0.0324835
-0.0124572
-0.0678632
-0.0557182
-0.0392123
-0.0101711
-0.0281263
-0.00605092
-0.00787348
-0.0317226
-0.0121378
-0.0311962
-0.0245061
-0.0069844
-0.0206295
0.0237182
0.00541867
-0.00925241
0.0494958
0.00981032
0.165626
0.0423956
-0.0377709
-0.000614578
0.000184583
0.0227272
0.0313145
0.00569558
0.0280464
0.0113555
-0.0196701
0.000938275
-0.0258255
0.010905
0.0378523
-0.0249229
0.0430249
0.0423477
-0.0113847
0.0390915
-0.0116643
0.0311201
0.0415957
0.0547849
0.0773477
0.0574551
0.0620358
0.0567658
-0.0205747
-0.0025577
-0.0311944
-0.0239002
0.0590622
-0.0373717
0.0213541
0.0435046
0.00203879
0.000142337
-0.00463946
-0.0149956
-0.0105079
-0.00314451
-0.00763467
-0.00286705
0.000926338
0.000461528
0.0032846
0.00139996
0.003265
0.00429066
0.0047931
0.00674735
0.0054072
0.000804749
-0.0550006
-0.00331647
-0.00484892
-0.025841
-0.018594
0.00202021
-0.00641491
-0.00219
0.00395957
-0.000554897
0.00388574
0.00119672
0.0042128
0.00840268
0.0067366
0.0112139
0.0073512
0.0143275
-0.0298262
-0.034894
-0.0168823
-0.0279183
-0.0245055
0.00844632
0.00472371
0.00307375
0.0109896
0.00134917
0.000794621
-0.000911137
-0.00144392
0.0103472
0.00631381
0.0131428
0.0053944
0.0198618
0.000702048
-0.00796929
0.0039321
-0.007236
-0.0236644
0.00770805
0.0158779
0.0113021
0.0194117
0.010178
-0.00251781
-0.0025183
-0.0115314
0.00813635
0.00634764
0.0122289
0.00719096
0.0223042
0.062753
-0.0634884
-0.0478307
-0.0390488
-0.0650062
-0.0384616
-0.00428552
0.00866989
0.0161056
0.0190455
-0.00539679
-0.00197142
-0.0194335
0.00277918
0.0111805
0.00701341
0.0103698
0.0281779
0.043632
-0.0948333
-0.087854
-0.0692883
-0.0839298
-0.06513
-0.0191592
0.017718
0.00590106
0.0208985
-0.00809679
0.00471229
-0.0152402
0.0023173
0.0302933
0.00585742
0.00711452
0.0351878
0.00375818
-0.164702
-0.145853
-0.0906154
-0.024511
0.000154129
0.00370567
0.0436301
-0.0102077
0.0114875
-0.00703341
0.0298851
0.011578
0.0134563
0.0634712
0.0165861
0.00148351
0.0349044
0.0513136
0.0152563
-0.00208231
-0.00599914
-0.00511551
-0.000157514
-0.0034568
-0.00753412
0.000221689
-0.000646725
0.00237363
0.00587109
0.00621829
0.0113999
0.0184164
0.0306351
0.063204
0.0526432
-0.0387499
0.0137827
0.00716941
-0.00265096
-0.00429773
0.00964984
0.00322592
-0.012548
-0.000638622
-0.00663407
-0.00156066
0.0067037
0.00516157
0.0127974
0.0215117
0.0339132
0.0835242
0.0965418
-0.0453215
-0.0160457
0.00120612
0.00313741
-0.00227235
0.0207749
0.0245786
-0.0074351
0.00155707
-0.00904432
-0.0130827
0.00397849
-0.000274588
0.008499
0.015718
0.0251205
0.0663408
0.0901623
-0.0904695
-0.0442589
0.00990839
0.0231624
0.007814
0.0320441
0.0579991
0.0120675
0.00835877
-0.00120741
-0.0263167
-0.00174181
-0.00538666
0.00224074
0.00720775
0.0169991
0.0566938
0.0642501
-0.00525303
0.0408886
0.0219238
0.0104989
0.000239666
0.0296421
0.0858246
0.0390051
0.0124104
0.0139749
-0.0318607
-0.0088579
-0.004769
4.49002e-05
-0.00338721
0.00360383
0.0627322
0.0640289
0.0181572
-0.0205371
-0.0642499
-0.0272345
-0.000420421
0.0106637
0.0672625
0.0391162
-0.00288102
0.0242506
-0.0219221
-0.00938535
0.00603106
0.0127997
-0.0119454
-0.0186519
0.0661138
0.0974932
-0.0421889
0.0948109
0.0761575
0.0302331
-0.00172284
-0.0180187
0.0400804
0.0614965
0.00268376
0.0287703
-0.0180975
-0.0254758
0.00414302
0.0266077
-0.0326778
-0.0497152
0.0678836
0.117352
-0.0394563
-0.0320026
-0.0204975
-0.00797463
-0.00848173
-0.00410519
-0.00244524
-0.00264482
0.00205881
-0.00100904
0.00536478
0.000269457
0.00638854
0.00978394
0.0131617
0.0222561
0.0512393
-0.00975669
-0.0408046
-0.0526205
-0.029994
-0.00336263
-0.0087323
-0.00634708
-0.00387812
-0.00462071
0.00636016
0.000321928
0.0117131
-0.00227789
0.00942563
0.0131115
0.0169259
0.0321907
0.0804099
0.0310891
-0.043956
-0.0770141
-0.034816
0.00131619
-0.00917457
-0.0137349
-0.00961798
-0.0111018
0.0073177
0.00310546
0.0203937
-0.00128931
0.0051457
0.0164838
0.00632702
0.0284546
0.0784305
0.0528721
0.0232698
0.0659941
0.0380053
0.0159242
-0.0162322
-0.0288503
-0.0213057
-0.0214889
0.00376337
0.00449059
0.0336837
0.010195
-0.00219496
0.0220213
-0.00128403
0.00867871
0.0772782
0.0384199
-0.0713783
-0.0353412
-0.0553224
-0.0366498
-0.0252005
-0.0233059
-0.0183278
-0.0213145
0.00541991
0.00365677
0.0480631
0.034957
-0.0028632
0.0199393
0.00710054
-0.0184651
0.0825931
-0.00435016
-0.151977
-0.07932
0.0195969
0.0920235
0.0801766
0.0307503
-0.0184537
-0.0351046
0.00248753
-0.00907941
0.0477352
0.059583
0.00917965
0.00544639
0.0148642
-0.03269
0.0976696
-0.0193819
-0.104369
-0.0602385
-0.019005
0.00554514
-0.00191195
0.00557073
-0.0335941
-0.0400992
0.0219373
-0.0154113
0.0240733
0.0624834
0.0176678
-0.0140059
-0.009309
-0.0361288
0.115609
0.0131758
-0.0930849
-0.0526171
-0.0140033
-0.00309759
0.00116526
-0.00511437
-0.00443096
-0.00323566
-0.00886571
-0.00509882
-0.00143606
-0.00232749
0.00307358
-0.000400339
0.0012153
-0.0136173
-0.00381739
-0.0386908
-0.10735
-0.100572
-0.0357142
-0.0039095
0.0102709
-0.0075314
-0.00755033
-0.00225434
-0.0129304
-0.00750237
-0.00208964
-0.00690902
0.00631477
0.00171839
0.0058654
-0.0209339
0.000443664
-0.0426428
-0.0303391
-0.0723461
-0.0257199
0.000565617
0.0227369
-0.00379437
-0.0146442
0.000350573
-0.0109086
-0.00377423
0.00425653
-0.0107265
0.00207506
0.00262362
0.0108944
-0.0249751
-0.0021317
-0.0142602
-0.0590825
-0.056191
0.00282655
0.00530243
0.0304831
0.00351724
-0.0276325
-0.00110071
-0.00795456
0.00376561
0.0223733
-0.00335792
-0.00472743
-0.00422285
0.0184842
-0.0289829
-0.0250344
0.00578676
-0.101454
-0.158317
-0.100821
-0.0591648
0.0128616
0.0117877
-0.0430942
-0.00626822
-0.00390862
0.00984404
0.0461273
0.0198264
-0.00130559
-0.0253741
0.0206502
-0.0144841
-0.065435
-0.0307239
-0.06993
-0.142224
-0.0215828
-0.0161593
-0.00266536
-0.00669049
-0.0838295
-0.0285278
-0.00706441
0.000720215
0.0490593
0.0351517
0.0148317
-0.0601012
-0.0129621
0.0271709
-0.0722193
-0.144758
0.144082
0.0256431
0.0466258
0.0359269
0.0591076
0.0928342
-0.0201764
0.00619074
0.0208501
0.00313458
0.0357428
0.0254613
0.0431001
-0.0823811
-0.10192
0.0608648
0.025459
-0.28898
-0.0795927
-0.0282548
-0.00347737
-0.00250342
0.0439394
0.0472207
0.105287
0.101659
0.000594899
0.13679
0.0575656
-0.0473197
0.114391
-0.112774
-0.154317
-0.0551117
-0.0169968
0.0489003
-0.0584187
-0.066556
-0.0356443
-0.0647959
0.0504291
0.0242866
-0.0646799
-0.0797499
-0.0281861
0.133757
-0.00898725
-0.0682717
0.013298
-0.13268
-0.126929
-0.116963
-0.0821645
0.163665
-0.145669
-0.0587414
0.15276
0.113804
0.0525869
0.0336793
0.0108672
-0.0754491
-0.023793
0.137624
0.0571729
0.123343
0.152299
0.087319
0.0240775
-0.0346724
-0.0605144
-0.0216116
0.0621621
0.102693
0.257554
0.112285
-0.00903695
0.10282
0.118222
-0.14215
-0.0420702
0.117635
-0.0387709
0.102464
0.0236976
-0.000718633
0.087646
-0.0822072
0.0404601
-0.0981966
0.080144
0.140291
0.0622088
-0.00829587
-0.0201459
0.0411354
0.210493
0.0292431
-0.0687227
0.157075
0.0216952
-0.0276143
-0.0452461
-0.0751234
0.119781
0.0315231
0.0152581
-0.0410564
-0.0965405
-0.0455381
0.0594989
0.143869
0.0925437
0.0964618
0.178391
0.0384986
-0.0974828
0.0616301
0.0986971
-0.0482328
-0.191272
-0.123246
-0.131866
-0.184904
0.101727
0.118552
-0.0129206
-0.00943436
-0.0566083
0.0574587
-0.0133097
0.0109364
0.0619285
0.0170514
0.00474748
-0.119141
-0.026092
0.0942637
-0.0497743
-0.05968
-0.0525563
-0.13303
-0.0865949
0.0159257
0.113741
-0.0215082
0.0539916
0.0690062
-0.113519
0.0267762
-0.0071747
-0.112894
-0.0540951
-0.12278
-0.0142771
0.0276686
0.0486962
0.078824
-0.148229
-0.154772
0.0454508
-0.0501574
0.080115
0.105594
0.0721074
-0.0885886
-0.157392
0.02909
-0.0618567
0.00145144
0.0562152
-0.071158
0.0252444
-0.0773373
-0.0958616
-0.0134361
-0.0454825
0.0382183
0.0460824
-0.0233133
0.221965
0.183385
0.0701059
0.0473449
0.124213
0.175115
0.0421449
0.0416721
-0.000258075
0.00400928
0.100555
0.0634923
0.130557
0.114912
-0.00960886
-0.0491542
-0.0575704
0.00981889
0.161662
0.164359
0.105636
0.0775154
-0.0109407
-0.0496336
-0.0212546
-0.0661459
-0.038973
0.00768058
0.0511856
-0.00368478
0.0199762
-0.0163905
-0.0575878
0.00277556
-0.0541738
-0.0232338
0.00656183
0.0398628
-0.0533331
-0.0134642
-0.0726624
-0.000760135
0.000633127