[11.816939392950301,10.169181049514956,9.40606114669743,5.365525555268615,4.3509812045496545,3.874301805689057,3.0636936741282805,2.2503866360591167,2.1133456704188496,1.9230115170975093,1.7709577236861285,1.3183283819715073,1.232876828510977,1.023758562754695,0.9492869485219247,0.8694393628053682,0.7747207061960353,0.5915941958546415,0.31907453567835586,0.13409670859144893]