[5.118587453559401,0.22060878996078542,0.10167089809895338,0.09452189141965958,0.08795045286088653,0.06232328791558482,0.057787611231752585,0.05209740784715418,0.0476119904075928,0.04404749708721948,0.04021698815808399,0.03877622257193436,0.03512079134626189,0.032584494243700114,0.03100722309590388,0.02841314746624537,0.027939515137799006,0.025212347109229784,0.01509853019402592,0.006753296458896061]