-0.22471458286342394	-0.22136593121679185	-0.22315648695414947	-0.22580281781196465	-0.22933086588929488	-0.22081898609630674	-0.22216653290599786	-0.23032147578685797	-0.22881869161503582	-0.2279891855619549	-0.22441237767287808	-0.2216379141026564	-0.22497711823164468	-0.22462457280348608	-0.22559428487111602	-0.2215825292026061	-0.21926952801767763	-0.21785136520988782	-0.21900812751143423	-0.2181017710354374
-0.08130307885186983	-0.07484436338432066	-0.1561184132416994	-0.2682206884152563	-0.3316559770949025	-0.2779063690628722	-0.1243749898203379	-0.18154540454383483	-0.22550588655944054	-0.19325376846826037	-0.10190568000279754	-0.0017735013516610443	0.14315825979337116	0.20066906467720874	0.2478461760667653	0.31448352774870064	0.2966893639539152	0.2698373681047638	0.28517772101315686	0.30655569559613133
0.15768134614558946	0.13045120522574227	-0.03649215987240251	-0.2027507362455986	0.05538075173372687	0.4295636231577586	0.12374085038044182	-0.18713034248624164	-0.6131697402934938	-0.15943024873058148	0.21234759392068803	0.40045635047878964	-0.08756237897554725	-0.04648424428745343	-0.08257480454240856	-0.1634838601560682	-0.09419007523225631	0.04866430441462165	0.12506505543216478	0.025521312090981338
0.21660263262779522	0.17373783083371697	0.19373275472938806	0.2477984402393431	0.2205227290522741	-0.027268548753138777	-0.24269835246129856	-0.21334041320752117	-0.09633207651838627	0.006408500033988851	-0.09122219044249558	-0.33999684152148324	-0.44128785666561043	-0.2937645029982511	-0.22585070283286424	0.041066843217750226	0.2080824037612382	0.2618414446565598	0.19428406119409491	0.23151277237984358
-0.21295736819194705	-0.2340100009489506	-0.35101970809726646	-0.17185600548882454	0.30475389318604035	0.03453648867767606	-0.2617704991976972	-0.30983361405329674	0.08239846811109158	0.5125998894161451	0.4182050393528831	0.043076987109793796	-0.05206343690882681	-0.024638409468835776	0.03362819100387873	0.027314492906797716	0.1478689805245602	0.09558774696016553	-0.015133373853225884	-0.07632622378407464
0.046890083755120715	0.018997567034000795	-0.06271384683519221	0.03344576119418574	0.15212353430424874	-0.03326261174622147	0.23012754701688898	-0.3144854675815184	-0.06594651435146959	0.10783978819032325	-0.0750139062853683	-0.411178550001539	0.3996148060458019	0.40629523063592554	-0.24055890233603916	-0.40610708006050544	-0.14695933476819234	0.032838858759258516	0.14328976389328119	0.18665744870470347
-0.30777326107916525	-0.1440778202646643	0.007420765210028102	0.06957943671598177	-0.15886762697243895	-0.04272309078411529	-0.028059160407683414	0.1019175666550155	0.27681790844191134	-0.06480192332676493	0.011361178920611392	0.38882385759851423	0.17016516694972783	-0.2807929069956735	-0.4993860102643446	-0.24813200429080484	0.023329842242535648	0.22211910293819281	0.3095732947992975	0.2115847569420115
-0.23080162173004903	-0.1631772662413229	-0.12111261382189875	-0.26069312783951026	0.1855506634259665	0.2526812694923794	0.037632422922249886	0.6646537210620257	-0.23974134704985384	-0.012942146904278307	0.04844226587010214	-0.4149530116944987	-0.0018472117766110685	-0.041707519694133666	-0.13130704105520563	0.0776978021448268	0.06478931795782195	0.05430552565841884	0.056244483177540716	0.1688469897224626
-0.11659830476885111	-0.10764291018875896	-0.2274497501938233	-0.03921675665957984	-0.04664517537630987	0.5729533526712601	0.3553300916650747	-0.3177474296055624	0.33702495432334406	-0.15842719706574435	-0.3168536575915928	-0.08408500006604559	-0.1203722287039632	-0.032595832950403344	-0.05627804049828697	0.23795586363089619	0.18288538149288508	0.032080554802287345	-0.08761636078301928	0.015024257107965816
-0.16868299463807102	-0.11689397208735519	-0.023246599452011463	0.06675338282723886	-0.09062446578897809	0.01718528007529052	0.04177724868881105	0.0762685985607956	0.19251198842839878	-0.15097042446076125	0.1842620732012381	0.028611101154552454	-0.610621241891999	0.4068246794880386	0.2617272215216302	-0.3685617727576769	-0.14313579767446516	0.06999717171686726	0.062463731180854465	0.26494962405697553
0.17127223945575532	-0.0623207030177646	-0.24740201142428453	-0.0368488661227202	0.41608915790854795	-0.019560586051664552	-0.17549355569022218	-0.06012751123135418	0.22776078434919222	-0.44661162295767864	0.08244220047378015	-0.004912924832349397	0.19311229204332792	-0.2701843824524899	0.2584139319899923	0.046876453652241024	-0.32247393549529035	-0.20991835565057548	0.15187978644550015	0.2962139964116499
0.06928364094110329	0.01516185803359038	0.03233150812237007	-0.006168816078132799	-0.2425774650139667	0.027331351401181703	0.18401168093035336	-0.041040530953300625	0.12227642015846962	-0.28155278820048846	0.4982764042935006	-0.34993040011892473	0.12523543009214588	-0.27149997390937575	0.18849825187243674	-0.23106350750864735	0.20206190234869847	0.2140031001294025	0.13841046231467002	-0.38690441481886406
-0.11115661193001891	-0.07706975703709662	-0.09786195833084155	0.01166244936649119	0.23512567508037296	-0.13520828366007032	0.2842395749436397	0.06303297769183946	-0.11900774612920939	0.2227621900071417	-0.4670409414999521	0.08468829975295211	-0.07686967126878774	-0.24803210677818788	0.41164994380485753	-0.22484849427192577	-0.06942873026905949	0.19770649110734517	0.3605375735642973	-0.2514730642653762
0.07102484814999421	0.023616299302970045	0.006887777158884223	-0.08865180863198319	-0.37043397631107666	-0.07905410157782944	0.3827546408048468	-0.06985136607979348	-0.018118792529125738	0.40764923928137975	0.17764145793555564	-0.12562652222138082	-0.09539363200884399	-0.3731007144167169	0.0740244095244873	0.11156356212489138	-0.23348980781402018	-0.2775192356513352	0.0637033918001233	0.41949085158949506
-0.251308060786146	0.004459272308435791	0.253769389809684	0.1818785253330505	-0.23928506158533558	0.47219843230857317	-0.4774265200709741	-0.0698363367298428	-0.06819198878703103	0.14331027014023667	-0.1332779240135339	-0.11138878474969227	0.225907784670218	-0.08250522262100501	0.33472552136748035	-0.20759774111191098	0.014388332343239996	-0.1915256023661055	0.10680853255979827	0.09832980252525969
0.44473982552739666	0.12115019977902008	-0.16889901729128876	-0.39126919766963586	-0.08820566419885245	0.03626455773495141	-0.13032124439629267	0.14633965862127574	0.1869168842782789	0.12526559217739952	-0.20263564930199718	0.07081907273893151	0.03530767435360227	-0.11084117508884073	0.07979371088997866	-0.44963899529765783	0.31060238861490963	0.09148198272176211	-0.3086785845423039	0.19877250890744413
0.27255639970672707	0.06700266468791538	-0.06690328504129339	-0.22361222592133267	-0.23596073606233303	0.19363341310084103	-0.25299435106404844	0.06774511480436507	0.20036371516712892	0.15492776465239233	-0.06196063131488061	-0.09264926041529087	-0.04460265357185533	0.11189565782814181	-0.09202871615680008	0.1828087948987851	-0.5736411218740298	0.3773110317783166	0.23125105763406895	-0.2170342159344023
0.21028403934122109	0.017441175715305235	-0.10519981391442501	-0.12847846432475674	-0.047676588709937295	0.012064562127072076	-0.06997818750638718	0.07461085812647417	0.11762875814419704	0.037865237583780686	-0.026600562522673954	0.006726747646069953	-0.1536931117639635	0.16921159935750874	-0.1678920687805321	-0.018881048462538796	0.2799944389462743	-0.5872767904431835	0.5900961244512195	-0.216089112729263
0.26720553844352807	-0.18829842162292296	-0.6000416568990082	0.634004731273205	-0.22730900381095534	0.055399364014469016	-0.04960954403393961	0.1638599354462134	-0.1967374120102604	0.04786870308315741	0.0055761514523649525	0.016274716451218862	0.03878513597531372	0.009369311079690246	-0.01570008769212844	-0.009159049686749632	0.029180464518184263	0.04054109476818599	-0.035729301319339046	0.009806164570089482
0.36212084345175694	-0.8395693772603986	0.39041371570078465	-0.032801956303162016	0.02245896926226737	0.03924207662942597	0.03213024890761046	-0.0466973288229498	-0.04527079553713326	0.008764994776517376	-0.01823379255846097	0.03133191934352331	0.01993800565879139	0.01455132484224786	-5.042713980635272E-4	0.011361071168825787	0.020914586406640012	0.02119438251344663	-0.007427303265067464	0.010712986697220928
