[0.9650580028527388,0.8176076615731267,0.7633317780386742,0.7470730085900126,0.7318846994938499,0.7129569506026844,0.6922457963051273,0.6755079067285108,0.6393384474847882,0.6242338055411659,0.5851133797974243,0.5809452250495933,0.41312915806961154,0.21647984266511858,0.03491610241528173,0.00868359848700988,0.003178307731287434,0.001630829429976865,9.605461049041979E-4,3.600182137179422E-4]