Eigenvalue
240.2538376242756
16.46660876251121
12.240028373436381
10.167500016910058
5.6731642924075425
4.147264269984754
3.7985985860731657
3.626967882076854
3.403570457140945
2.6869638989357933
2.315959987286014
2.036610804269642
1.8035813119194652
1.7246938032843464
1.492231755836951
1.4137382663001339
1.285335768988875
0.8687370207472602
0.5114399373224318
0.1872502178101996
