[27078.75346624849,1371.0665993495963,577.8407325042155,520.6957020502921,262.49633224603633,140.70529692149756,127.27594636430896,110.90597714485493,90.5796831650753,87.47118706529324,63.492652880918634,55.16243642442797,45.56177390926894,36.39939591251585,32.22200909449158,26.778892638764546,19.43118189160568,17.80143972449883,12.0545817522493,8.359888730829734]